#INFO: **** input file is /home/xzhang8/spump2/example/01-FeCl6.py ****
from pyscf import gto, scf, mp

mol = gto.Mole()
mol.atom = '''
Fe        -0.20236        0.06324       -0.00000
Cl        -1.66556       -0.24136       -1.72410
Cl         1.26074        0.36774        1.72410
Cl         0.46174        2.04564       -0.91380
Cl        -0.86656       -1.91916        0.91380
Cl        -1.82226        1.15104        1.18260
Cl         1.41754       -1.02456       -1.18260
'''
mol.basis = 'ccpvdz'
mol.charge = -4
mol.max_memory=50000
mol.verbose = 5
mol.build()

mf = scf.UHF(mol).density_fit()
mf.kernel(dm0=None)
mf = mf.to_ghf()

mymp = mp.GMP2(mf)
mymp.kernel()

from spump2 import dfsppt2

N_alpha = N_gamma = 1
N_beta = 5
s, m, k = 0, 0, 0

pt2 = dfsppt2.SPPT2(mf)

pt2.e_hf = mf.e_tot
pt2.e_elec_hf = pt2.e_hf - pt2.mol.energy_nuc()

import pstats, cProfile
profiler = cProfile.Profile()
profiler.enable()

e = pt2.energy(s, m, k, mymp, N_alpha=N_alpha, N_beta=N_beta, N_gamma=N_gamma)
print(e)

profiler.disable()
stats = pstats.Stats(profiler).sort_stats('cumtime')
stats.print_stats()

#INFO: ******************** input file end ********************


System: uname_result(system='Linux', node='pauling050', release='3.10.0-327.36.3.el7.x86_64', version='#1 SMP Thu Oct 20 04:56:07 EDT 2016', machine='x86_64', processor='x86_64')  Threads 24
Python 3.7.6 (default, Jan  8 2020, 19:59:22) 
[GCC 7.3.0]
numpy 1.19.4  scipy 1.4.1
Date: Mon Jul 26 18:40:26 2021
PySCF version 2.0.0a
PySCF path  /home/xzhang8/pyscf
GIT ORIG_HEAD a81f201c42b26babed4851b275001504ea856fa4
GIT HEAD (branch master) de99aaad3d06a122c485f4c326a16b3755f3434d

[ENV] PYSCF_TMPDIR /scratch/global/xzhang8
[CONFIG] conf_file None
[INPUT] verbose = 5
[INPUT] max_memory = 50000 
[INPUT] num. atoms = 7
[INPUT] num. electrons = 132
[INPUT] charge = -4
[INPUT] spin (= nelec alpha-beta = 2S) = 0
[INPUT] symmetry False subgroup None
[INPUT] Mole.unit = angstrom
[INPUT]  1 Fe    -0.202360000000   0.063240000000   0.000000000000 AA   -0.382404978567   0.119506280117   0.000000000000 Bohr
[INPUT]  2 Cl    -1.665560000000  -0.241360000000  -1.724100000000 AA   -3.147452244031  -0.456104297425  -3.258076811363 Bohr
[INPUT]  3 Cl     1.260740000000   0.367740000000   1.724100000000 AA    2.382453314284   0.694927885048   3.258076811363 Bohr
[INPUT]  4 Cl     0.461740000000   2.045640000000  -0.913800000000 AA    0.872562140757   3.865699349455  -1.726831732628 Bohr
[INPUT]  5 Cl    -0.866560000000  -1.919160000000   0.913800000000 AA   -1.637561070503  -3.626686789220   1.726831732628 Bohr
[INPUT]  6 Cl    -1.822260000000   1.151040000000   1.182600000000 AA   -3.443572327750   2.175150358419   2.234790114911 Bohr
[INPUT]  7 Cl     1.417540000000  -1.024560000000  -1.182600000000 AA    2.678762370616  -1.936137798184  -2.234790114911 Bohr
[INPUT] ---------------- BASIS SET ---------------- 
[INPUT] l, kappa, [nprim/nctr], expnt,             c_1 c_2 ...
[INPUT] Cl
[INPUT] 0    0    [11   /3   ]  127900            0.000241153 -6.78922e-05 2.04986e-05
                                19170             0.00187095 -0.000521836 0.000158298
                                4363              0.00970827 -0.00276513 0.000833639
                                1236              0.0393153 -0.0111537 0.0033988
                                403.6             0.125932 -0.0385919 0.0116738
                                145.7             0.299341 -0.0994848 0.0309622
                                56.81             0.421886 -0.201392 0.0629533
                                23.23             0.237201 -0.130313 0.0460257
                                6.644             0.0191531 0.509443 -0.219312
                                2.575             -0.00334792 0.610725 -0.408773
                                0.5371            0.000929883 0.0421549 0.638465
[INPUT] 0    0    [1    /1   ]  0.1938               1
[INPUT] 1    0    [7    /2   ]  417.6             0.00525982 -0.0014357
                                98.33             0.0398332 -0.0107796
                                31.04             0.164655 -0.0470075
                                11.19             0.387322 -0.11103
                                4.249             0.457072 -0.153275
                                1.624             0.151636 0.0894609
                                0.5322            0.00181615 0.579444
[INPUT] 1    0    [1    /1   ]  0.162                1
[INPUT] 2    0    [1    /1   ]  0.6                  1
[INPUT] Fe
[INPUT] 0    0    [19   /5   ]  4316265           8.048803e-06 -4.155954e-06 9.532178e-07 -2.063008e-07 -4.009367e-07
                                646342.4          6.258306e-05 -3.231401e-05 7.414605e-06 -1.604169e-06 -3.189255e-06
                                147089.7          0.0003290239 -0.0001699525 3.898393e-05 -8.438437e-06 -1.623079e-05
                                41661.52          0.001387355 -0.0007171369 0.0001647152 -3.563151e-05 -7.15792e-05
                                13590.77          0.005023256 -0.002603625 0.000598598 -0.0001295998 -0.0002463958
                                4905.75           0.0161014 -0.008399109 0.00194239 -0.0004201534 -0.0008544907
                                1912.746          0.04590034 -0.02434109 0.005687237 -0.001231954 -0.002307593
                                792.6043          0.1136154 -0.06251948 0.01501329 -0.003248922 -0.006728292
                                344.8065          0.2283869 -0.1365929 0.03452455 -0.007493717 -0.01366165
                                155.8999          0.3221159 -0.2312707 0.0649582 -0.01410102 -0.0306224
                                72.23091          0.2383661 -0.2383734 0.07716194 -0.016916 -0.02631137
                                32.72506          0.07404667 0.03123837 -0.01873411 0.004218996 -0.009760183
                                15.66762          0.09214197 0.5086818 -0.3009185 0.0683381 0.1801906
                                7.503483          0.0933979 0.4987695 -0.4554661 0.1098201 0.1529634
                                3.312223          0.01573965 0.09033552 0.1286463 -0.04009005 0.05505413
                                1.558471          -0.0004186682 -0.006005337 0.7183316 -0.2174739 -0.9551364
                                0.683914          5.376318e-05 0.0002312454 0.4051743 -0.2465135 0.2586813
                                0.146757          -3.816654e-05 -0.000564368 0.02168227 0.2731435 1.834049
                                0.070583          4.319603e-05 0.000499226 -0.008343566 0.5748321 -0.933324
[INPUT] 0    0    [1    /1   ]  0.031449             1
[INPUT] 1    0    [15   /4   ]  17745.69          4.1e-05 -1.5e-05 3e-06 5e-06
                                4200.721          0.000369 -0.00013 2.9e-05 4.2e-05
                                1364.429          0.002129 -0.000751 0.000165 0.000241
                                522.0806          0.009369 -0.003329 0.000734 0.001085
                                221.4595          0.033097 -0.011912 0.002626 0.003831
                                100.9096          0.094431 -0.034933 0.007725 0.011423
                                48.40115          0.208077 -0.079989 0.017733 0.025792
                                23.98536          0.332333 -0.134636 0.030055 0.044818
                                12.1825           0.332987 -0.138598 0.031094 0.044598
                                6.242298          0.156843 0.030278 -0.010048 -0.011177
                                3.110944          0.021549 0.333216 -0.088306 -0.138134
                                1.509958          -0.002095 0.456153 -0.129824 -0.188285
                                0.710845          -0.001739 0.285051 -0.076937 -0.107399
                                0.27319           -0.0003 0.046144 0.212661 0.444863
                                0.104233          2.9e-05 -0.003249 0.573061 0.640239
[INPUT] 1    0    [1    /1   ]  0.038291             1
[INPUT] 2    0    [7    /2   ]  113.344           0.00353 -0.00389
                                33.6414           0.025784 -0.028442
                                12.331            0.099119 -0.112429
                                4.99478           0.239073 -0.274257
                                2.0728            0.357199 -0.315546
                                0.830753          0.362188 0.057109
                                0.309178          0.236461 0.563604
[INPUT] 2    0    [1    /1   ]  0.10013              1
[INPUT] 3    0    [2    /1   ]  3.2243            0.422249
                                0.7758            0.771468

nuclear repulsion = 1284.34446247646
number of shells = 37
number of NR pGTOs = 368
number of NR cGTOs = 151
basis = ccpvdz
ecp = {}
CPU time:         0.36


******** <class 'pyscf.df.df_jk.density_fit.<locals>.DFHF'> ********
method = DFHF-UHF
initial guess = minao
damping factor = 0
level_shift factor = 0
DIIS = <class 'pyscf.scf.diis.CDIIS'>
diis_start_cycle = 1
diis_space = 8
SCF conv_tol = 1e-09
SCF conv_tol_grad = None
SCF max_cycles = 50
direct_scf = True
direct_scf_tol = 1e-13
chkfile to save SCF result = /scratch/global/xzhang8/tmpkmb1f0il
max_memory 50000 MB (current use 58 MB)
number electrons alpha = 66  beta = 66
Set gradient conv threshold to 3.16228e-05
******** <class 'pyscf.df.df.DF'> ********
auxbasis = None
max_memory = 50000
_cderi_to_save = /scratch/global/xzhang8/tmptq14v6jv
Default auxbasis cc-pvdz-jkfit is used for Cl ccpvdz
Even tempered Gaussians are generated as DF auxbasis for  Fe
  ETB auxbasis for Fe  [[0, [65953.333248, 1]], [0, [32976.666624, 1]], [0, [16488.333312, 1]], [0, [8244.166656, 1]], [0, [4122.083328, 1]], [0, [2061.041664, 1]], [0, [1030.520832, 1]], [0, [515.260416, 1]], [0, [257.630208, 1]], [0, [128.815104, 1]], [0, [64.407552, 1]], [0, [32.203776, 1]], [0, [16.101888, 1]], [0, [8.050944, 1]], [0, [4.025472, 1]], [0, [2.012736, 1]], [0, [1.006368, 1]], [0, [0.503184, 1]], [0, [0.251592, 1]], [0, [0.125796, 1]], [0, [0.062898, 1]], [1, [9096.86388404399, 1]], [1, [4548.431942021995, 1]], [1, [2274.2159710109977, 1]], [1, [1137.1079855054988, 1]], [1, [568.5539927527494, 1]], [1, [284.2769963763747, 1]], [1, [142.13849818818736, 1]], [1, [71.06924909409368, 1]], [1, [35.53462454704684, 1]], [1, [17.76731227352342, 1]], [1, [8.88365613676171, 1]], [1, [4.441828068380855, 1]], [1, [2.2209140341904274, 1]], [1, [1.1104570170952137, 1]], [1, [0.5552285085476069, 1]], [1, [0.27761425427380343, 1]], [1, [0.13880712713690171, 1]], [1, [0.06940356356845086, 1]], [2, [2509.438976, 1]], [2, [1254.719488, 1]], [2, [627.359744, 1]], [2, [313.679872, 1]], [2, [156.839936, 1]], [2, [78.419968, 1]], [2, [39.209984, 1]], [2, [19.604992, 1]], [2, [9.802496, 1]], [2, [4.901248, 1]], [2, [2.450624, 1]], [2, [1.225312, 1]], [2, [0.612656, 1]], [2, [0.306328, 1]], [2, [0.153164, 1]], [2, [0.076582, 1]], [3, [507.2480730952904, 1]], [3, [253.6240365476452, 1]], [3, [126.8120182738226, 1]], [3, [63.4060091369113, 1]], [3, [31.70300456845565, 1]], [3, [15.851502284227825, 1]], [3, [7.925751142113913, 1]], [3, [3.9628755710569563, 1]], [3, [1.9814377855284782, 1]], [3, [0.9907188927642391, 1]], [3, [0.49535944638211954, 1]], [3, [0.24767972319105977, 1]], [3, [0.12383986159552988, 1]], [4, [205.06624, 1]], [4, [102.53312, 1]], [4, [51.26656, 1]], [4, [25.63328, 1]], [4, [12.81664, 1]], [4, [6.40832, 1]], [4, [3.20416, 1]], [4, [1.60208, 1]], [4, [0.80104, 1]], [4, [0.40052, 1]], [4, [0.20026, 1]], [5, [35.675245085857505, 1]], [5, [17.837622542928752, 1]], [5, [8.918811271464376, 1]], [5, [4.459405635732188, 1]], [5, [2.229702817866094, 1]], [5, [1.114851408933047, 1]], [5, [0.5574257044665235, 1]], [6, [6.2064, 1]], [6, [3.1032, 1]], [6, [1.5516, 1]]]
num shells = 305, num cGTOs = 1133
size of aux basis 1133
int3c2e [1/1], AO [0:37], nrow = 11476
    CPU time for cholesky_eri      2.06 sec, wall time      0.63 sec
    CPU time for df vj and vk      4.26 sec, wall time      0.75 sec
E1 = -8144.1060416899545  Ecoul = 2842.757940612959
init E= -4017.00363860053
cond(S) = 4095.6405085627403
    CPU time for initialize scf      4.45 sec, wall time      0.80 sec

WARN: alpha nocc = 66  HOMO 0.129442774445842 >= LUMO 0.129442966554658


WARN: beta  nocc = 66  HOMO 0.129917141333316 >= LUMO 0.129917337772644


WARN: system HOMO 0.129917141333316 >= system LUMO 0.129917337772644

  alpha mo_energy =
[-2.59966854e+02 -1.04919671e+02 -1.04919671e+02 -1.04919669e+02
 -1.04919669e+02 -1.04919669e+02 -1.04919668e+02 -3.05838983e+01
 -2.60536059e+01 -2.60536059e+01 -2.60536059e+01 -1.06466310e+01
 -1.06466173e+01 -1.06466171e+01 -1.06465474e+01 -1.06465472e+01
 -1.06465472e+01 -8.10959346e+00 -8.10959344e+00 -8.10959338e+00
 -8.10958743e+00 -8.10958741e+00 -8.10958735e+00 -8.10958393e+00
 -8.10958391e+00 -8.10958385e+00 -8.10958104e+00 -8.10958101e+00
 -8.10958095e+00 -8.10954281e+00 -8.10954269e+00 -8.10953508e+00
 -8.10952709e+00 -8.10952695e+00 -8.10952688e+00 -3.27257738e+00
 -1.89646161e+00 -1.89645992e+00 -1.89645926e+00 -1.15864554e+00
 -1.11043971e+00 -1.11043880e+00 -1.11043740e+00 -1.09930611e+00
 -1.09930575e+00 -5.43514409e-01 -5.23621163e-01 -5.23620484e-01
 -5.23618103e-01 -5.11141807e-01 -5.11141202e-01 -5.11138729e-01
 -4.45254817e-01 -4.45252706e-01 -4.45251665e-01 -4.41786509e-01
 -4.41786175e-01 -4.09749743e-01 -4.09748801e-01 -4.09747029e-01
 -4.03830429e-01 -4.03829059e-01 -4.03828500e-01  9.22215878e-02
  1.29442122e-01  1.29442774e-01  1.29442967e-01  2.04262334e-01
  2.04263024e-01  2.04263304e-01  3.11120035e-01  3.11122985e-01
  4.05804679e-01  4.05806074e-01  4.05809761e-01  4.07859230e-01
  4.07861849e-01  4.55226862e-01  5.37701867e-01  5.37704036e-01
  5.37704555e-01  6.78234586e-01  6.78237849e-01  6.78239063e-01
  6.94704832e-01  6.94706547e-01  6.94707622e-01  6.98695451e-01
  7.32278083e-01  7.32279795e-01  7.32280489e-01  7.41742203e-01
  7.41742370e-01  7.98274962e-01  7.98275595e-01  7.98277146e-01
  8.14831155e-01  8.14832722e-01  8.14833326e-01  9.07316765e-01
  9.07317678e-01  9.07318197e-01  9.12278238e-01  9.20180814e-01
  9.20181147e-01  9.20181505e-01  9.20408602e-01  9.20408780e-01
  9.28554656e-01  9.37964807e-01  9.37968364e-01  9.37969207e-01
  9.48186104e-01  9.48189526e-01  9.77540297e-01  9.77541539e-01
  9.77543428e-01  9.89903447e-01  1.03966942e+00  1.03967392e+00
  1.03967576e+00  1.15753645e+00  1.15753845e+00  1.15754695e+00
  1.22137150e+00  1.22137545e+00  1.33185474e+00  1.33186237e+00
  1.33186845e+00  1.51725014e+00  1.58522987e+00  1.58523299e+00
  1.59659524e+00  1.59659705e+00  1.59660178e+00  1.63010754e+00
  1.63011343e+00  1.63012956e+00  2.45648703e+00  2.45648949e+00
  2.45649107e+00  2.52974855e+00  2.87638008e+00  2.87640720e+00
  3.91244297e+00  3.94011193e+00  3.94011351e+00  3.94011415e+00
  4.12499320e+00  4.12499850e+00  4.12501202e+00]
  beta  mo_energy =
[-2.59967621e+02 -1.04919071e+02 -1.04919071e+02 -1.04919068e+02
 -1.04919068e+02 -1.04919068e+02 -1.04919068e+02 -3.05802190e+01
 -2.60529207e+01 -2.60529206e+01 -2.60529206e+01 -1.06445054e+01
 -1.06445054e+01 -1.06443793e+01 -1.06443711e+01 -1.06443711e+01
 -1.06443711e+01 -8.10914080e+00 -8.10914078e+00 -8.10914073e+00
 -8.10913403e+00 -8.10913401e+00 -8.10913396e+00 -8.10913128e+00
 -8.10913125e+00 -8.10913121e+00 -8.10912707e+00 -8.10912705e+00
 -8.10912699e+00 -8.10895150e+00 -8.10895140e+00 -8.10894408e+00
 -8.10893523e+00 -8.10893511e+00 -8.10893505e+00 -3.28365003e+00
 -1.90072918e+00 -1.90072738e+00 -1.90072669e+00 -1.14097779e+00
 -1.09840213e+00 -1.09840124e+00 -1.09839983e+00 -1.09129462e+00
 -1.09129429e+00 -5.41205968e-01 -5.14971838e-01 -5.14971145e-01
 -5.14968716e-01 -5.07576825e-01 -5.07576151e-01 -5.07573533e-01
 -4.47182303e-01 -4.47181647e-01 -4.42245742e-01 -4.42243599e-01
 -4.42242511e-01 -4.10204126e-01 -4.10203244e-01 -4.10201353e-01
 -4.02488983e-01 -4.02487574e-01 -4.02487000e-01  9.44016275e-02
  1.29916482e-01  1.29917141e-01  1.29917338e-01  2.03139812e-01
  2.03140484e-01  2.03140758e-01  3.10760628e-01  3.10763691e-01
  4.05709342e-01  4.05710717e-01  4.05714375e-01  4.07971074e-01
  4.07973741e-01  4.55333079e-01  5.38121888e-01  5.38124049e-01
  5.38124569e-01  6.78591762e-01  6.78595049e-01  6.78596276e-01
  6.95333177e-01  6.95334900e-01  6.95335976e-01  6.98116531e-01
  7.33632272e-01  7.33633977e-01  7.33634669e-01  7.42579533e-01
  7.42579704e-01  7.98837992e-01  7.98838622e-01  7.98840164e-01
  8.14718760e-01  8.14720313e-01  8.14720921e-01  9.07617236e-01
  9.07618200e-01  9.07618734e-01  9.14200841e-01  9.21440088e-01
  9.21440417e-01  9.21440761e-01  9.21836159e-01  9.21836335e-01
  9.29963643e-01  9.38785510e-01  9.38789061e-01  9.38789902e-01
  9.48434018e-01  9.48437466e-01  9.78536553e-01  9.78537787e-01
  9.78539672e-01  9.91065214e-01  1.04013814e+00  1.04014266e+00
  1.04014450e+00  1.15715968e+00  1.15716169e+00  1.15717021e+00
  1.22155113e+00  1.22155512e+00  1.33231527e+00  1.33232288e+00
  1.33232896e+00  1.51712786e+00  1.58542797e+00  1.58543105e+00
  1.59667041e+00  1.59667223e+00  1.59667696e+00  1.62960494e+00
  1.62961083e+00  1.62962696e+00  2.45584708e+00  2.45584952e+00
  2.45585111e+00  2.52966214e+00  2.87573491e+00  2.87576202e+00
  3.91142961e+00  3.93898054e+00  3.93898212e+00  3.93898277e+00
  4.12394176e+00  4.12394707e+00  4.12396059e+00]
multiplicity <S^2> = 0.00052545504  2S+1 = 1.0010504
    CPU time for df vj and vk      2.06 sec, wall time      0.11 sec
E1 = -8050.344243060659  Ecoul = 2760.65238548337
cycle= 1 E= -4005.34739510082  delta_E= 11.7  |g|= 4.13  |ddm|= 33.5
    CPU time for cycle= 1      2.15 sec, wall time      0.12 sec
  alpha nocc = 66  HOMO = -0.126862555709217  LUMO = -0.115854220709279
  beta  nocc = 66  HOMO = -0.12651141507617  LUMO = -0.116470820946797
  alpha mo_energy =
[-2.67580470e+02 -1.04362273e+02 -1.04362221e+02 -1.04352924e+02
 -1.04352921e+02 -1.04348401e+02 -1.04348378e+02 -3.78252705e+01
 -3.33520388e+01 -3.33519096e+01 -3.33519020e+01 -1.01447419e+01
 -1.01446876e+01 -1.01358379e+01 -1.01358239e+01 -1.01315228e+01
 -1.01314961e+01 -8.28653481e+00 -7.60895433e+00 -7.60890173e+00
 -7.59977070e+00 -7.59976771e+00 -7.59971499e+00 -7.59966324e+00
 -7.59949837e+00 -7.59944659e+00 -7.59532635e+00 -7.59530341e+00
 -7.59066914e+00 -7.59066600e+00 -7.59037778e+00 -7.59037465e+00
 -7.58630046e+00 -7.58627778e+00 -7.58596238e+00 -7.58593973e+00
 -6.70074439e+00 -6.69932270e+00 -6.69923540e+00 -3.79703156e+00
 -3.79684425e+00 -3.77240046e+00 -3.77153618e+00 -3.77129152e+00
 -1.56959878e+00 -1.21463443e+00 -1.20752494e+00 -1.20649211e+00
 -1.00827192e+00 -1.00436029e+00 -7.49542029e-01 -6.38358034e-01
 -6.32803882e-01 -6.30078668e-01 -5.30843714e-01 -5.25589558e-01
 -5.23195850e-01 -3.99942870e-01 -3.94178345e-01 -2.13136119e-01
 -2.05018837e-01 -2.01424451e-01 -1.71177268e-01 -1.69105301e-01
 -1.64671933e-01 -1.26862556e-01 -1.15854221e-01 -1.14009154e-01
 -1.09503318e-01 -6.98722796e-02 -6.85381724e-02 -6.64236658e-02
 -6.26918572e-02 -6.18601623e-02 -5.85957247e-02  1.40685288e-01
  1.45723484e-01  3.28242481e-01  4.30737850e-01  4.32502969e-01
  4.60052494e-01  4.72336207e-01  4.74625954e-01  5.24713255e-01
  6.32078052e-01  6.59404835e-01  6.62265644e-01  6.62433577e-01
  6.63069312e-01  6.65315660e-01  6.74073320e-01  6.82118026e-01
  6.87522608e-01  6.91321411e-01  8.22072952e-01  8.28480196e-01
  8.28686116e-01  1.04469147e+00  1.06368109e+00  1.06862825e+00
  1.07205236e+00  1.08425572e+00  1.08580180e+00  1.09035589e+00
  1.11294011e+00  1.11344863e+00  1.11437758e+00  1.12002529e+00
  1.12070132e+00  1.15101223e+00  1.15328263e+00  1.15844819e+00
  1.24255303e+00  1.24766886e+00  1.24827506e+00  1.28395199e+00
  1.28459290e+00  1.28559057e+00  1.31047332e+00  1.31232505e+00
  1.31641965e+00  1.31924970e+00  1.32080827e+00  1.32526921e+00
  1.32785937e+00  1.33514222e+00  1.33736273e+00  1.38920153e+00
  1.39110972e+00  1.39652421e+00  1.39952567e+00  1.40118505e+00
  1.40456579e+00  1.44534991e+00  1.44762599e+00  1.45309430e+00
  1.52065186e+00  1.58721218e+00  1.58916294e+00  1.62004521e+00
  1.62457603e+00  1.62639740e+00  1.67400751e+00  1.67736808e+00
  1.68007072e+00  1.93493341e+00  1.94081633e+00  1.94237721e+00
  1.98502758e+00  1.98792466e+00  2.18290742e+00]
  beta  mo_energy =
[-2.67580379e+02 -1.04362339e+02 -1.04362287e+02 -1.04352985e+02
 -1.04352982e+02 -1.04348463e+02 -1.04348440e+02 -3.78251628e+01
 -3.33519671e+01 -3.33518381e+01 -3.33518305e+01 -1.01448191e+01
 -1.01447649e+01 -1.01359070e+01 -1.01358929e+01 -1.01315919e+01
 -1.01315652e+01 -8.28606769e+00 -7.60902738e+00 -7.60897476e+00
 -7.59983596e+00 -7.59983143e+00 -7.59982845e+00 -7.59978417e+00
 -7.59959873e+00 -7.59954695e+00 -7.59538496e+00 -7.59536201e+00
 -7.59080368e+00 -7.59080053e+00 -7.59047479e+00 -7.59047166e+00
 -7.58643943e+00 -7.58641675e+00 -7.58605934e+00 -7.58603669e+00
 -6.70055693e+00 -6.69913547e+00 -6.69904818e+00 -3.79722441e+00
 -3.79703699e+00 -3.77266588e+00 -3.77180165e+00 -3.77155690e+00
 -1.57079776e+00 -1.21673110e+00 -1.20962849e+00 -1.20860135e+00
 -1.01020276e+00 -1.00630686e+00 -7.50309785e-01 -6.38941003e-01
 -6.33371482e-01 -6.30648242e-01 -5.32248447e-01 -5.26987267e-01
 -5.24582071e-01 -4.00383680e-01 -3.94585090e-01 -2.13784390e-01
 -2.05522092e-01 -2.01948022e-01 -1.71755943e-01 -1.69743479e-01
 -1.65237689e-01 -1.26511415e-01 -1.16470821e-01 -1.14591809e-01
 -1.10013177e-01 -6.95102900e-02 -6.79531278e-02 -6.60628405e-02
 -6.22879308e-02 -6.12178312e-02 -5.79437951e-02  1.41485872e-01
  1.46548887e-01  3.28513931e-01  4.30834917e-01  4.32666941e-01
  4.60105656e-01  4.72371813e-01  4.74668391e-01  5.24735640e-01
  6.31971394e-01  6.59508872e-01  6.62083912e-01  6.62258091e-01
  6.63113967e-01  6.65143811e-01  6.74271109e-01  6.81872869e-01
  6.87712570e-01  6.91567606e-01  8.22214542e-01  8.28618459e-01
  8.28819985e-01  1.04492813e+00  1.06363229e+00  1.06861645e+00
  1.07203943e+00  1.08412470e+00  1.08569105e+00  1.09030872e+00
  1.11286569e+00  1.11340163e+00  1.11441624e+00  1.11994714e+00
  1.12077165e+00  1.15109304e+00  1.15336324e+00  1.15856327e+00
  1.24255067e+00  1.24772150e+00  1.24833095e+00  1.28421222e+00
  1.28484961e+00  1.28583325e+00  1.31050062e+00  1.31229623e+00
  1.31643153e+00  1.31925316e+00  1.32075414e+00  1.32520490e+00
  1.32783526e+00  1.33518088e+00  1.33744892e+00  1.38923974e+00
  1.39114100e+00  1.39656709e+00  1.39963945e+00  1.40140705e+00
  1.40481692e+00  1.44552871e+00  1.44781041e+00  1.45335564e+00
  1.52098249e+00  1.58742867e+00  1.58940314e+00  1.62024620e+00
  1.62486599e+00  1.62669585e+00  1.67414969e+00  1.67748780e+00
  1.68022377e+00  1.93498726e+00  1.94089194e+00  1.94245180e+00
  1.98505526e+00  1.98796023e+00  2.18294896e+00]
multiplicity <S^2> = 3.7146872e-05  2S+1 = 1.0000743
    CPU time for df vj and vk      2.01 sec, wall time      0.10 sec
E1 = -8497.551870076391  Ecoul = 3269.3649006140167
cycle= 2 E= -3943.84250698591  delta_E= 61.5  |g|= 12.9  |ddm|=  288
    CPU time for cycle= 2      2.09 sec, wall time      0.12 sec
  alpha nocc = 66  HOMO = 0.0358740684082986  LUMO = 0.0372986494023906
  beta  nocc = 66  HOMO = 0.0355335915355364  LUMO = 0.0369664684234064
  alpha mo_energy =
[-2.64733701e+02 -1.04332870e+02 -1.04332771e+02 -1.04328191e+02
 -1.04328179e+02 -1.04326010e+02 -1.04325958e+02 -3.51438789e+01
 -3.06453154e+01 -3.06452027e+01 -3.06451901e+01 -1.00871147e+01
 -1.00870269e+01 -1.00823734e+01 -1.00823541e+01 -1.00801454e+01
 -1.00800973e+01 -7.55291801e+00 -7.55283167e+00 -7.54802304e+00
 -7.54801215e+00 -7.54695757e+00 -7.54687008e+00 -7.54678413e+00
 -7.54669666e+00 -7.54572511e+00 -7.54567960e+00 -7.54214305e+00
 -7.54213214e+00 -7.54191226e+00 -7.54190133e+00 -7.53989166e+00
 -7.53984569e+00 -7.53962599e+00 -7.53958002e+00 -6.33448494e+00
 -4.79924589e+00 -4.79818473e+00 -4.79811043e+00 -1.95159582e+00
 -1.95145925e+00 -1.92608468e+00 -1.92536156e+00 -1.92516716e+00
 -8.82339639e-01 -7.54236468e-01 -7.49713828e-01 -7.47911276e-01
 -6.89981111e-01 -6.86450032e-01 -4.06024877e-01 -2.62726919e-01
 -2.58825056e-01 -2.56919598e-01 -1.17158286e-01 -1.13588045e-01
 -1.10584040e-01 -1.06797294e-01 -1.02085921e-01 -3.67679478e-02
 -3.18673851e-02 -2.92288559e-02 -2.06381315e-02 -1.90373482e-02
 -1.58166938e-02  3.58740684e-02  3.72986494e-02  4.02607689e-02
  1.54375227e-01  3.02791641e-01  3.06432027e-01  3.07819395e-01
  4.22639809e-01  4.93850022e-01  4.95493039e-01  5.05279527e-01
  5.09488257e-01  5.11538377e-01  5.75097141e-01  7.41175451e-01
  7.42142259e-01  8.25983626e-01  8.38725393e-01  8.41178453e-01
  8.66263951e-01  8.67388050e-01  9.86445034e-01  1.03029637e+00
  1.03967402e+00  1.04157359e+00  1.15088892e+00  1.15511977e+00
  1.15974725e+00  1.18727099e+00  1.19558466e+00  1.19689229e+00
  1.20076863e+00  1.21328162e+00  1.21391872e+00  1.21903922e+00
  1.22585079e+00  1.22875150e+00  1.26517425e+00  1.26662445e+00
  1.27046406e+00  1.33365492e+00  1.33454841e+00  1.33674208e+00
  1.33750290e+00  1.34640162e+00  1.34691809e+00  1.41099571e+00
  1.42034956e+00  1.42416653e+00  1.42425299e+00  1.42771622e+00
  1.42941705e+00  1.43004892e+00  1.47058293e+00  1.47099993e+00
  1.47185103e+00  1.47471295e+00  1.47752212e+00  1.47883609e+00
  1.48063609e+00  1.48186969e+00  1.52487636e+00  1.52635225e+00
  1.53026161e+00  1.57695682e+00  1.62729976e+00  1.62965868e+00
  1.63149151e+00  1.78315307e+00  1.78762445e+00  1.78974676e+00
  1.79665534e+00  1.79701038e+00  1.88342846e+00  1.89007517e+00
  1.89069666e+00  2.06256572e+00  2.11083660e+00  2.11116192e+00
  2.11349881e+00  2.11692458e+00  2.11954597e+00  2.43027814e+00
  2.43175983e+00  2.43247705e+00  2.43799220e+00]
  beta  mo_energy =
[-2.64733622e+02 -1.04332930e+02 -1.04332830e+02 -1.04328247e+02
 -1.04328235e+02 -1.04326067e+02 -1.04326015e+02 -3.51437858e+01
 -3.06452529e+01 -3.06451400e+01 -3.06451273e+01 -1.00871870e+01
 -1.00870992e+01 -1.00824383e+01 -1.00824190e+01 -1.00802105e+01
 -1.00801624e+01 -7.55298081e+00 -7.55289448e+00 -7.54807573e+00
 -7.54806484e+00 -7.54706801e+00 -7.54698052e+00 -7.54687493e+00
 -7.54678747e+00 -7.54577624e+00 -7.54573073e+00 -7.54226639e+00
 -7.54225548e+00 -7.54200053e+00 -7.54198959e+00 -7.54001921e+00
 -7.53997325e+00 -7.53971441e+00 -7.53966844e+00 -6.33411837e+00
 -4.79910674e+00 -4.79804710e+00 -4.79797319e+00 -1.95186883e+00
 -1.95173240e+00 -1.92638290e+00 -1.92566037e+00 -1.92546623e+00
 -8.83454728e-01 -7.55465117e-01 -7.50948950e-01 -7.49157766e-01
 -6.90924617e-01 -6.87402609e-01 -4.06318095e-01 -2.63490828e-01
 -2.59536244e-01 -2.57617865e-01 -1.17798953e-01 -1.14210892e-01
 -1.11170858e-01 -1.07072359e-01 -1.02313312e-01 -3.71192224e-02
 -3.20726110e-02 -2.94635152e-02 -2.09128476e-02 -1.93861280e-02
 -1.60751112e-02  3.55335915e-02  3.69664684e-02  4.00317264e-02
  1.54720584e-01  3.03416603e-01  3.07040391e-01  3.08435550e-01
  4.22881826e-01  4.93874709e-01  4.95577790e-01  5.05375164e-01
  5.09599814e-01  5.11666145e-01  5.75092771e-01  7.41469915e-01
  7.42453688e-01  8.26045722e-01  8.38813744e-01  8.41268689e-01
  8.66396677e-01  8.67461601e-01  9.86251147e-01  1.03036302e+00
  1.03967293e+00  1.04162554e+00  1.15078383e+00  1.15505380e+00
  1.15968635e+00  1.18727556e+00  1.19541517e+00  1.19679007e+00
  1.20066502e+00  1.21319275e+00  1.21385908e+00  1.21894229e+00
  1.22576814e+00  1.22871898e+00  1.26504320e+00  1.26649275e+00
  1.27036629e+00  1.33373520e+00  1.33462252e+00  1.33679048e+00
  1.33742366e+00  1.34635186e+00  1.34687168e+00  1.41095796e+00
  1.42029665e+00  1.42416271e+00  1.42419150e+00  1.42770081e+00
  1.42939589e+00  1.42999361e+00  1.47044692e+00  1.47090932e+00
  1.47184008e+00  1.47470406e+00  1.47751812e+00  1.47887050e+00
  1.48074445e+00  1.48200816e+00  1.52501237e+00  1.52649483e+00
  1.53047041e+00  1.57719087e+00  1.62734395e+00  1.62972021e+00
  1.63153156e+00  1.78321075e+00  1.78765529e+00  1.78979907e+00
  1.79673328e+00  1.79709459e+00  1.88341472e+00  1.89009906e+00
  1.89072337e+00  2.06237229e+00  2.11065291e+00  2.11097872e+00
  2.11331576e+00  2.11691975e+00  2.11955058e+00  2.43016463e+00
  2.43165186e+00  2.43236901e+00  2.43799203e+00]
multiplicity <S^2> = 0.00029986598  2S+1 = 1.0005996
    CPU time for df vj and vk      2.11 sec, wall time      0.11 sec
E1 = -8404.991887399008  Ecoul = 3128.280702996635
cycle= 3 E= -3992.36672192591  delta_E= -48.5  |g|= 8.34  |ddm|=  234
    CPU time for cycle= 3      2.19 sec, wall time      0.13 sec
  alpha nocc = 66  HOMO = 0.0775603064079303  LUMO = 0.13107834235993
  beta  nocc = 66  HOMO = 0.07728902835766  LUMO = 0.130894004287275
  alpha mo_energy =
[-2.62976590e+02 -1.04321686e+02 -1.04321552e+02 -1.04222495e+02
 -1.04222484e+02 -1.04221981e+02 -1.04221783e+02 -3.34817269e+01
 -2.89691865e+01 -2.89690932e+01 -2.89690460e+01 -1.00658544e+01
 -1.00657317e+01 -9.97795083e+00 -9.97792827e+00 -9.97791273e+00
 -9.97776622e+00 -7.53138763e+00 -7.53126559e+00 -7.52693661e+00
 -7.52681440e+00 -7.52672157e+00 -7.52659933e+00 -7.44345560e+00
 -7.44332820e+00 -7.44331800e+00 -7.44327494e+00 -7.43882850e+00
 -7.43874212e+00 -7.43873198e+00 -7.43864760e+00 -7.43787247e+00
 -7.43780066e+00 -7.43779046e+00 -7.43769208e+00 -5.23259013e+00
 -3.74605024e+00 -3.74446540e+00 -3.74401992e+00 -1.03134722e+00
 -1.02804782e+00 -9.90841982e-01 -9.90360243e-01 -9.88985937e-01
 -7.07577544e-01 -6.57098276e-01 -6.12338488e-01 -6.10349527e-01
 -5.85572502e-01 -5.58226710e-01 -2.34638823e-01 -1.46795470e-01
 -1.16986088e-01 -1.15295483e-01 -3.76155005e-02 -3.44114391e-02
 -2.33476706e-02 -1.27481587e-02  1.64708931e-02  2.59942255e-02
  2.80859450e-02  4.45195539e-02  4.87870532e-02  5.60281797e-02
  7.16528271e-02  7.75603064e-02  1.31078342e-01  1.32778817e-01
  4.38278728e-01  4.83500134e-01  5.37530955e-01  5.45484920e-01
  5.70714699e-01  5.88139428e-01  5.90111405e-01  6.09563899e-01
  7.38310405e-01  7.44388774e-01  7.51364820e-01  8.49903375e-01
  8.51214971e-01  9.93739303e-01  1.00140677e+00  1.00555720e+00
  1.12609016e+00  1.14153761e+00  1.15273908e+00  1.20532433e+00
  1.21560263e+00  1.21604634e+00  1.22310325e+00  1.22597700e+00
  1.23931465e+00  1.27730108e+00  1.27812856e+00  1.28289177e+00
  1.31094257e+00  1.32726090e+00  1.32931643e+00  1.33016164e+00
  1.33157800e+00  1.34987469e+00  1.39737210e+00  1.40917073e+00
  1.41374640e+00  1.41797473e+00  1.42256792e+00  1.42522676e+00
  1.42838361e+00  1.43107122e+00  1.43783796e+00  1.45401992e+00
  1.49825576e+00  1.50381313e+00  1.50909076e+00  1.52242925e+00
  1.54111601e+00  1.55419439e+00  1.55626753e+00  1.56199748e+00
  1.56418003e+00  1.56545666e+00  1.56866415e+00  1.57121136e+00
  1.58439906e+00  1.58670530e+00  1.59363896e+00  1.59556077e+00
  1.60724780e+00  1.65940498e+00  1.74961386e+00  1.77107565e+00
  1.77197934e+00  1.85779075e+00  1.86150890e+00  1.87065945e+00
  1.97593042e+00  1.97649610e+00  2.02611190e+00  2.03685610e+00
  2.03967645e+00  2.24825560e+00  2.27123762e+00  2.59607141e+00
  2.74458499e+00  2.78077541e+00  2.78130227e+00  2.78237885e+00
  3.00646464e+00  3.01398140e+00  3.01443367e+00]
  beta  mo_energy =
[-2.62976528e+02 -1.04321742e+02 -1.04321608e+02 -1.04222541e+02
 -1.04222530e+02 -1.04222032e+02 -1.04221834e+02 -3.34816620e+01
 -2.89691487e+01 -2.89690552e+01 -2.89690082e+01 -1.00659204e+01
 -1.00657978e+01 -9.97801474e+00 -9.97798570e+00 -9.97796914e+00
 -9.97783122e+00 -7.53142568e+00 -7.53130363e+00 -7.52705802e+00
 -7.52693581e+00 -7.52681852e+00 -7.52669626e+00 -7.44350198e+00
 -7.44336363e+00 -7.44335343e+00 -7.44332130e+00 -7.43891835e+00
 -7.43882896e+00 -7.43881881e+00 -7.43873745e+00 -7.43795184e+00
 -7.43787991e+00 -7.43786971e+00 -7.43777145e+00 -5.23233594e+00
 -3.74597820e+00 -3.74439294e+00 -3.74394636e+00 -1.03177430e+00
 -1.02846434e+00 -9.91200651e-01 -9.90717606e-01 -9.89341714e-01
 -7.08399640e-01 -6.57930475e-01 -6.13105425e-01 -6.11102480e-01
 -5.86122477e-01 -5.58717513e-01 -2.34873178e-01 -1.47314482e-01
 -1.17548467e-01 -1.15800259e-01 -3.79960542e-02 -3.47118970e-02
 -2.34478386e-02 -1.27831775e-02  1.64317114e-02  2.56787047e-02
  2.78302644e-02  4.42515940e-02  4.87008912e-02  5.60877229e-02
  7.15649156e-02  7.72890284e-02  1.30894004e-01  1.32721948e-01
  4.38496269e-01  4.83731931e-01  5.37600437e-01  5.45548573e-01
  5.70953980e-01  5.88416781e-01  5.90382158e-01  6.09494504e-01
  7.38322405e-01  7.44421470e-01  7.51448377e-01  8.50033244e-01
  8.51330684e-01  9.93737479e-01  1.00145694e+00  1.00559158e+00
  1.12593615e+00  1.14145887e+00  1.15276693e+00  1.20524445e+00
  1.21537727e+00  1.21591578e+00  1.22297084e+00  1.22587837e+00
  1.23913861e+00  1.27724164e+00  1.27799178e+00  1.28283160e+00
  1.31101266e+00  1.32715075e+00  1.32924548e+00  1.33011240e+00
  1.33154812e+00  1.34975387e+00  1.39724670e+00  1.40910276e+00
  1.41376381e+00  1.41786563e+00  1.42247701e+00  1.42514138e+00
  1.42837230e+00  1.43102852e+00  1.43783701e+00  1.45391801e+00
  1.49819381e+00  1.50380286e+00  1.50908229e+00  1.52239258e+00
  1.54118535e+00  1.55417227e+00  1.55627770e+00  1.56189902e+00
  1.56415216e+00  1.56543685e+00  1.56871764e+00  1.57127659e+00
  1.58446729e+00  1.58683262e+00  1.59347787e+00  1.59541360e+00
  1.60741220e+00  1.65957313e+00  1.74967901e+00  1.77115551e+00
  1.77209852e+00  1.85781935e+00  1.86152447e+00  1.87070235e+00
  1.97593930e+00  1.97649021e+00  2.02608232e+00  2.03682780e+00
  2.03965875e+00  2.24820936e+00  2.27120468e+00  2.59605240e+00
  2.74437841e+00  2.78057303e+00  2.78109937e+00  2.78217935e+00
  3.00630679e+00  3.01382544e+00  3.01428020e+00]
multiplicity <S^2> = 0.00054485346  2S+1 = 1.0010891
    CPU time for df vj and vk      1.97 sec, wall time      0.10 sec
E1 = -8364.309896818357  Ecoul = 3076.4835038961965
cycle= 4 E= -4003.4819304457  delta_E= -11.1  |g|= 6.47  |ddm|= 51.9
    CPU time for cycle= 4      2.05 sec, wall time      0.12 sec
  alpha nocc = 66  HOMO = 0.206913941857675  LUMO = 0.268119016663729
  beta  nocc = 66  HOMO = 0.20706623495533  LUMO = 0.26737582662837
  alpha mo_energy =
[-2.61561907e+02 -1.04312558e+02 -1.04311091e+02 -1.04309517e+02
 -1.04309337e+02 -1.04055748e+02 -1.04054805e+02 -3.20669585e+01
 -2.75549809e+01 -2.75546238e+01 -2.75544967e+01 -1.00361711e+01
 -1.00348599e+01 -1.00334512e+01 -1.00332884e+01 -9.81441840e+00
 -9.81357534e+00 -7.50173694e+00 -7.50161925e+00 -7.50042109e+00
 -7.50029378e+00 -7.50026997e+00 -7.49895293e+00 -7.49887432e+00
 -7.49877438e+00 -7.49871169e+00 -7.49861114e+00 -7.49753657e+00
 -7.49737401e+00 -7.27798467e+00 -7.27713857e+00 -7.27685294e+00
 -7.27665316e+00 -7.27600341e+00 -7.27580383e+00 -4.06615268e+00
 -2.62453909e+00 -2.62386472e+00 -2.62134465e+00 -5.60650924e-01
 -5.36312854e-01 -5.34344404e-01 -5.29161752e-01 -4.28870770e-01
 -4.22898256e-01 -1.20516945e-01 -1.09637665e-01 -7.24063259e-02
 -6.09217935e-02 -6.02407252e-02 -5.50326797e-02 -8.13368018e-03
 -7.34968269e-03  6.68452086e-02  7.34209963e-02  9.05973126e-02
  9.22629034e-02  1.25974940e-01  1.34266300e-01  1.40211298e-01
  1.48363034e-01  1.49791089e-01  1.56051295e-01  1.93887962e-01
  1.94980167e-01  2.06913942e-01  2.68119017e-01  2.70086611e-01
  5.47202420e-01  5.90401340e-01  6.00839630e-01  6.42594049e-01
  8.05854898e-01  8.76041923e-01  8.77700163e-01  9.00179133e-01
  9.20177792e-01  9.26038331e-01  9.34409597e-01  9.39484667e-01
  9.44106790e-01  1.22153841e+00  1.22474399e+00  1.25462619e+00
  1.26751211e+00  1.27220874e+00  1.29514036e+00  1.29649262e+00
  1.29917980e+00  1.30118429e+00  1.30334553e+00  1.33234575e+00
  1.33372217e+00  1.34384433e+00  1.35479003e+00  1.35784399e+00
  1.37482681e+00  1.43820335e+00  1.44009804e+00  1.45250250e+00
  1.48118648e+00  1.48796919e+00  1.48829908e+00  1.49148258e+00
  1.51248703e+00  1.51412420e+00  1.51482504e+00  1.51811425e+00
  1.52018314e+00  1.52469526e+00  1.54266235e+00  1.54411596e+00
  1.56753548e+00  1.58465876e+00  1.58549555e+00  1.60823620e+00
  1.62232301e+00  1.64129780e+00  1.67312971e+00  1.67468563e+00
  1.67728975e+00  1.68338996e+00  1.68407452e+00  1.70889018e+00
  1.75795861e+00  1.77003701e+00  1.83915824e+00  1.91773701e+00
  1.91927956e+00  1.92819719e+00  1.95973536e+00  1.96248890e+00
  1.96463860e+00  2.13970191e+00  2.14868396e+00  2.15443307e+00
  2.15680419e+00  2.16002424e+00  2.16049014e+00  2.16240234e+00
  2.20054854e+00  2.65537411e+00  2.68819260e+00  2.83213018e+00
  3.60018267e+00  3.62865204e+00  3.62987263e+00  3.63110796e+00
  3.81724662e+00  3.81742806e+00  3.82830385e+00]
  beta  mo_energy =
[-2.61561866e+02 -1.04312600e+02 -1.04311133e+02 -1.04309546e+02
 -1.04309366e+02 -1.04055810e+02 -1.04054866e+02 -3.20668821e+01
 -2.75549230e+01 -2.75545676e+01 -2.75544399e+01 -1.00362242e+01
 -1.00349131e+01 -1.00334888e+01 -1.00333260e+01 -9.81448765e+00
 -9.81364455e+00 -7.50177549e+00 -7.50167540e+00 -7.50045957e+00
 -7.50035218e+00 -7.50035000e+00 -7.49903525e+00 -7.49889977e+00
 -7.49883812e+00 -7.49873736e+00 -7.49867466e+00 -7.49756431e+00
 -7.49740185e+00 -7.27802713e+00 -7.27718097e+00 -7.27697166e+00
 -7.27679014e+00 -7.27612208e+00 -7.27594071e+00 -4.06597343e+00
 -2.62448719e+00 -2.62381488e+00 -2.62128907e+00 -5.60958977e-01
 -5.36614802e-01 -5.34532574e-01 -5.29394909e-01 -4.29402225e-01
 -4.23417226e-01 -1.20931785e-01 -1.09991580e-01 -7.28876698e-02
 -6.14022813e-02 -6.07407700e-02 -5.52633874e-02 -8.40674922e-03
 -7.57707605e-03  6.60932701e-02  7.38535779e-02  9.10634533e-02
  9.26033710e-02  1.24740380e-01  1.34336935e-01  1.40124609e-01
  1.49787621e-01  1.50270330e-01  1.55916668e-01  1.93439396e-01
  1.94627055e-01  2.07066235e-01  2.67375827e-01  2.69886268e-01
  5.47341109e-01  5.90434563e-01  6.00798932e-01  6.42587325e-01
  8.05893996e-01  8.76044603e-01  8.77712240e-01  9.00159683e-01
  9.20285081e-01  9.26108081e-01  9.34477969e-01  9.39537266e-01
  9.44122978e-01  1.22146187e+00  1.22464866e+00  1.25443997e+00
  1.26751610e+00  1.27204541e+00  1.29499853e+00  1.29646591e+00
  1.29919757e+00  1.30090086e+00  1.30317888e+00  1.33215956e+00
  1.33363900e+00  1.34371807e+00  1.35476871e+00  1.35780108e+00
  1.37483737e+00  1.43792536e+00  1.43983480e+00  1.45264316e+00
  1.48120789e+00  1.48789326e+00  1.48823905e+00  1.49145999e+00
  1.51245565e+00  1.51414916e+00  1.51482594e+00  1.51808175e+00
  1.52022741e+00  1.52474333e+00  1.54253536e+00  1.54396596e+00
  1.56746069e+00  1.58472394e+00  1.58557092e+00  1.60808046e+00
  1.62250681e+00  1.64108012e+00  1.67308912e+00  1.67471977e+00
  1.67708899e+00  1.68328262e+00  1.68403493e+00  1.70874420e+00
  1.75792942e+00  1.76987119e+00  1.83913185e+00  1.91774688e+00
  1.91931095e+00  1.92821932e+00  1.95968995e+00  1.96242660e+00
  1.96465581e+00  2.13966711e+00  2.14865426e+00  2.15441685e+00
  2.15678222e+00  2.15997672e+00  2.16045166e+00  2.16237030e+00
  2.20045768e+00  2.65530307e+00  2.68811561e+00  2.83209725e+00
  3.60006006e+00  3.62851327e+00  3.62973593e+00  3.63096919e+00
  3.81712509e+00  3.81730605e+00  3.82817915e+00]
multiplicity <S^2> = 0.00059984021  2S+1 = 1.001199
    CPU time for df vj and vk      2.00 sec, wall time      0.10 sec
E1 = -8315.058872272279  Ecoul = 3018.919154117626
cycle= 5 E= -4011.79525567819  delta_E= -8.31  |g|= 4.07  |ddm|=   21
    CPU time for cycle= 5      2.08 sec, wall time      0.12 sec
  alpha nocc = 66  HOMO = 0.294324229798798  LUMO = 0.308076179853329
  beta  nocc = 66  HOMO = 0.29495785041818  LUMO = 0.30829825755647
  alpha mo_energy =
[-2.61062034e+02 -1.04444738e+02 -1.04439930e+02 -1.04077567e+02
 -1.04075969e+02 -1.04074140e+02 -1.04073898e+02 -3.15749082e+01
 -2.70617972e+01 -2.70617301e+01 -2.70615612e+01 -1.01461136e+01
 -1.01417741e+01 -9.83023314e+00 -9.82884144e+00 -9.82698191e+00
 -9.82676948e+00 -7.61260579e+00 -7.61245022e+00 -7.61212328e+00
 -7.60823558e+00 -7.60808040e+00 -7.60777185e+00 -7.29380677e+00
 -7.29367562e+00 -7.29240351e+00 -7.29239387e+00 -7.29226390e+00
 -7.29099043e+00 -7.29047424e+00 -7.29035773e+00 -7.29026035e+00
 -7.29014410e+00 -7.28911041e+00 -7.28889688e+00 -3.68300661e+00
 -2.26251466e+00 -2.25721345e+00 -2.25690113e+00 -5.81869574e-01
 -5.74369125e-01 -4.29170735e-01 -4.13298112e-01 -4.10849940e-01
 -4.02585348e-01 -5.53133460e-02 -1.97672784e-02  5.74353081e-02
  5.86222017e-02  6.69405716e-02  6.79483105e-02  6.89404887e-02
  8.51605783e-02  1.17893675e-01  1.38593139e-01  1.39806953e-01
  1.96486010e-01  2.02251571e-01  2.04853549e-01  2.21488215e-01
  2.36420771e-01  2.44218125e-01  2.50090945e-01  2.71609227e-01
  2.92120152e-01  2.94324230e-01  3.08076180e-01  3.47066781e-01
  5.72921853e-01  6.05489479e-01  6.25827024e-01  6.61148116e-01
  9.10967730e-01  9.29475415e-01  9.52604291e-01  9.53798988e-01
  9.54817533e-01  9.56222813e-01  9.75456595e-01  9.79385622e-01
  1.00558422e+00  1.22938944e+00  1.26048384e+00  1.27188814e+00
  1.27229112e+00  1.28982456e+00  1.29164670e+00  1.33807343e+00
  1.34023649e+00  1.34057120e+00  1.35985005e+00  1.36611764e+00
  1.36869193e+00  1.36914982e+00  1.41453537e+00  1.41551147e+00
  1.42969961e+00  1.43173441e+00  1.46592358e+00  1.47516133e+00
  1.48035692e+00  1.48277311e+00  1.51388100e+00  1.51539995e+00
  1.52206093e+00  1.53844446e+00  1.54182636e+00  1.56573777e+00
  1.56847552e+00  1.57814608e+00  1.60207197e+00  1.60384920e+00
  1.61576022e+00  1.62936187e+00  1.63885203e+00  1.64428272e+00
  1.66916522e+00  1.66979863e+00  1.67750105e+00  1.67976893e+00
  1.71485933e+00  1.74198863e+00  1.76103677e+00  1.76238445e+00
  1.81026935e+00  1.81453266e+00  1.93278871e+00  1.96170224e+00
  1.97190574e+00  1.97371448e+00  2.00723109e+00  2.03066313e+00
  2.03278294e+00  2.17221474e+00  2.18037989e+00  2.21015308e+00
  2.23066054e+00  2.23189618e+00  2.37878299e+00  2.38041600e+00
  2.39240181e+00  2.84239863e+00  2.88762979e+00  2.91986693e+00
  3.86437832e+00  3.89257429e+00  3.89310434e+00  3.89434677e+00
  4.07053248e+00  4.08564101e+00  4.08590770e+00]
  beta  mo_energy =
[-2.61061995e+02 -1.04444801e+02 -1.04439993e+02 -1.04077595e+02
 -1.04075996e+02 -1.04074166e+02 -1.04073924e+02 -3.15748379e+01
 -2.70617412e+01 -2.70616738e+01 -2.70615064e+01 -1.01461826e+01
 -1.01418430e+01 -9.83026725e+00 -9.82887563e+00 -9.82701317e+00
 -9.82680076e+00 -7.61271480e+00 -7.61260239e+00 -7.61217746e+00
 -7.60834491e+00 -7.60823179e+00 -7.60782626e+00 -7.29385050e+00
 -7.29370855e+00 -7.29244607e+00 -7.29242994e+00 -7.29229852e+00
 -7.29102646e+00 -7.29051050e+00 -7.29040751e+00 -7.29029797e+00
 -7.29019249e+00 -7.28914239e+00 -7.28892900e+00 -3.68284378e+00
 -2.26245503e+00 -2.25715343e+00 -2.25683922e+00 -5.82397875e-01
 -5.74898186e-01 -4.29343079e-01 -4.13414655e-01 -4.10993251e-01
 -4.02710081e-01 -5.56360711e-02 -2.00792300e-02  5.67349395e-02
  5.78984548e-02  6.66622485e-02  6.73623009e-02  6.83574782e-02
  8.48126440e-02  1.17713199e-01  1.38263595e-01  1.39648852e-01
  1.95631943e-01  2.02251136e-01  2.06013310e-01  2.21873023e-01
  2.34822805e-01  2.44100550e-01  2.50903507e-01  2.71655125e-01
  2.92720338e-01  2.94957850e-01  3.08298258e-01  3.47258180e-01
  5.73047982e-01  6.05594602e-01  6.25861417e-01  6.61009198e-01
  9.11007046e-01  9.29428938e-01  9.52659320e-01  9.53826505e-01
  9.54820495e-01  9.56222797e-01  9.75480805e-01  9.79378043e-01
  1.00567885e+00  1.22924210e+00  1.26030353e+00  1.27164902e+00
  1.27213251e+00  1.28967493e+00  1.29150225e+00  1.33795666e+00
  1.34007760e+00  1.34054063e+00  1.35968521e+00  1.36598948e+00
  1.36852051e+00  1.36909804e+00  1.41455277e+00  1.41553106e+00
  1.42948002e+00  1.43158534e+00  1.46563966e+00  1.47515407e+00
  1.48011162e+00  1.48273410e+00  1.51383822e+00  1.51533826e+00
  1.52194913e+00  1.53822334e+00  1.54167706e+00  1.56573355e+00
  1.56844909e+00  1.57822777e+00  1.60209584e+00  1.60379704e+00
  1.61585633e+00  1.62934167e+00  1.63892613e+00  1.64434550e+00
  1.66915459e+00  1.66984314e+00  1.67755335e+00  1.67980452e+00
  1.71477260e+00  1.74214569e+00  1.76101477e+00  1.76235995e+00
  1.81022018e+00  1.81448445e+00  1.93277978e+00  1.96165662e+00
  1.97187861e+00  1.97368300e+00  2.00726955e+00  2.03069061e+00
  2.03281913e+00  2.17218556e+00  2.18031336e+00  2.21014019e+00
  2.23063420e+00  2.23187736e+00  2.37875813e+00  2.38037971e+00
  2.39237570e+00  2.84233029e+00  2.88758358e+00  2.91985479e+00
  3.86428198e+00  3.89246756e+00  3.89299853e+00  3.89423829e+00
  4.07043485e+00  4.08554683e+00  4.08581443e+00]
multiplicity <S^2> = 0.0004100992  2S+1 = 1.0008199
    CPU time for df vj and vk      2.00 sec, wall time      0.10 sec
E1 = -8241.571808037435  Ecoul = 2938.82616434586
cycle= 6 E= -4018.40118121511  delta_E= -6.61  |g|= 1.09  |ddm|= 3.24
    CPU time for cycle= 6      2.08 sec, wall time      0.12 sec
  alpha nocc = 66  HOMO = 0.26274728599553  LUMO = 0.593509519835174
  beta  nocc = 66  HOMO = 0.262918515728244  LUMO = 0.593364547614597
  alpha mo_energy =
[-2.61048348e+02 -1.04168760e+02 -1.04168669e+02 -1.04168387e+02
 -1.04167720e+02 -1.04034213e+02 -1.04031683e+02 -3.15788860e+01
 -2.70646505e+01 -2.70633318e+01 -2.70623905e+01 -9.89667857e+00
 -9.89643716e+00 -9.89618778e+00 -9.89578066e+00 -9.78852279e+00
 -9.78641200e+00 -7.36328481e+00 -7.36301976e+00 -7.36276775e+00
 -7.36237389e+00 -7.36120356e+00 -7.36111874e+00 -7.36091893e+00
 -7.36087738e+00 -7.36066811e+00 -7.36062668e+00 -7.36029917e+00
 -7.36021306e+00 -7.25265993e+00 -7.25106598e+00 -7.25102709e+00
 -7.25051012e+00 -7.24892470e+00 -7.24888574e+00 -3.67057360e+00
 -2.24225109e+00 -2.24195225e+00 -2.24084364e+00 -4.44880469e-01
 -4.22170366e-01 -4.21633114e-01 -4.13614201e-01 -3.77090784e-01
 -3.75611223e-01  6.99313008e-02  7.46126615e-02  7.51851417e-02
  7.96246682e-02  1.23803291e-01  1.29378297e-01  1.29924660e-01
  1.38115872e-01  1.52188352e-01  1.85784201e-01  1.90593343e-01
  1.93523875e-01  1.93546623e-01  1.94167175e-01  1.94611952e-01
  2.16673874e-01  2.18409580e-01  2.32024186e-01  2.32408870e-01
  2.62088105e-01  2.62747286e-01  5.93509520e-01  6.30629170e-01
  6.34616468e-01  6.66636175e-01  6.70179676e-01  6.88578465e-01
  9.64507807e-01  9.97500772e-01  9.97877329e-01  9.98289939e-01
  1.00233871e+00  1.00406493e+00  1.03276978e+00  1.03847983e+00
  1.03926081e+00  1.33054202e+00  1.33100542e+00  1.34970254e+00
  1.35899811e+00  1.36188557e+00  1.37728971e+00  1.37819316e+00
  1.40017742e+00  1.41376194e+00  1.41557767e+00  1.41597634e+00
  1.41802723e+00  1.43327860e+00  1.43362758e+00  1.43617198e+00
  1.47214044e+00  1.49280417e+00  1.49335961e+00  1.57318457e+00
  1.57391015e+00  1.58559478e+00  1.58571797e+00  1.59008758e+00
  1.60437047e+00  1.61314305e+00  1.62058981e+00  1.62063944e+00
  1.62368985e+00  1.62418096e+00  1.62675956e+00  1.63173048e+00
  1.65661515e+00  1.66048346e+00  1.67655308e+00  1.68720311e+00
  1.68759499e+00  1.71966392e+00  1.72803018e+00  1.74961881e+00
  1.75005335e+00  1.79627615e+00  1.79659897e+00  1.80269308e+00
  1.87294008e+00  1.87617529e+00  1.98191796e+00  2.02475343e+00
  2.03663913e+00  2.03715826e+00  2.05678764e+00  2.05704596e+00
  2.07315734e+00  2.23980709e+00  2.25048727e+00  2.26250615e+00
  2.26287896e+00  2.27760269e+00  2.41024176e+00  2.41072313e+00
  2.41097282e+00  2.93154865e+00  2.94062784e+00  2.96341353e+00
  3.88808328e+00  3.93185307e+00  3.93426686e+00  3.93485765e+00
  4.13237662e+00  4.13250485e+00  4.13607372e+00]
  beta  mo_energy =
[-2.61048327e+02 -1.04168779e+02 -1.04168692e+02 -1.04168410e+02
 -1.04167739e+02 -1.04034252e+02 -1.04031721e+02 -3.15789276e+01
 -2.70647454e+01 -2.70632525e+01 -2.70625202e+01 -9.89670477e+00
 -9.89646571e+00 -9.89621641e+00 -9.89580673e+00 -9.78856716e+00
 -9.78645629e+00 -7.36330818e+00 -7.36304244e+00 -7.36279063e+00
 -7.36239691e+00 -7.36122044e+00 -7.36115039e+00 -7.36096360e+00
 -7.36090712e+00 -7.36071281e+00 -7.36065660e+00 -7.36031548e+00
 -7.36024498e+00 -7.25269577e+00 -7.25113490e+00 -7.25110115e+00
 -7.25054583e+00 -7.24899347e+00 -7.24895990e+00 -3.67072908e+00
 -2.24264841e+00 -2.24177782e+00 -2.24142194e+00 -4.45001354e-01
 -4.22212328e-01 -4.21726086e-01 -4.13679075e-01 -3.77306840e-01
 -3.75822443e-01  6.96321761e-02  7.42994592e-02  7.48063925e-02
  7.96053939e-02  1.23543009e-01  1.29124703e-01  1.29825324e-01
  1.38156765e-01  1.51589249e-01  1.85942767e-01  1.90827155e-01
  1.93689958e-01  1.93759216e-01  1.94107450e-01  1.94991030e-01
  2.16569058e-01  2.18507538e-01  2.31881956e-01  2.32562701e-01
  2.61977035e-01  2.62918516e-01  5.93364548e-01  6.28736891e-01
  6.34684603e-01  6.66649102e-01  6.70215432e-01  6.88557240e-01
  9.64485069e-01  9.97488681e-01  9.97839449e-01  9.98334883e-01
  1.00233281e+00  1.00402332e+00  1.03279537e+00  1.03853882e+00
  1.03928888e+00  1.33045401e+00  1.33090767e+00  1.34959775e+00
  1.35882171e+00  1.36181520e+00  1.37719404e+00  1.37811708e+00
  1.40009191e+00  1.41362611e+00  1.41548399e+00  1.41593668e+00
  1.41807132e+00  1.43317558e+00  1.43355811e+00  1.43613444e+00
  1.47203876e+00  1.49268513e+00  1.49321989e+00  1.57313710e+00
  1.57387008e+00  1.58559136e+00  1.58571664e+00  1.59009913e+00
  1.60437066e+00  1.61310242e+00  1.62054542e+00  1.62058095e+00
  1.62374810e+00  1.62419205e+00  1.62680787e+00  1.63177240e+00
  1.65662544e+00  1.66042278e+00  1.67648566e+00  1.68725945e+00
  1.68762468e+00  1.71961540e+00  1.72809419e+00  1.74966488e+00
  1.75010321e+00  1.79621565e+00  1.79653592e+00  1.80262007e+00
  1.87286443e+00  1.87611638e+00  1.98186993e+00  2.02474389e+00
  2.03662687e+00  2.03714236e+00  2.05677083e+00  2.05703868e+00
  2.07312739e+00  2.23979083e+00  2.25041936e+00  2.26247600e+00
  2.26283841e+00  2.27754506e+00  2.41015049e+00  2.41066963e+00
  2.41091694e+00  2.93143908e+00  2.94022374e+00  2.96333919e+00
  3.88801731e+00  3.93175699e+00  3.93424340e+00  3.93436186e+00
  4.13198952e+00  4.13242173e+00  4.13561980e+00]
multiplicity <S^2> = 0.00011881549  2S+1 = 1.0002376
    CPU time for df vj and vk      1.99 sec, wall time      0.10 sec
E1 = -8234.68529423975  Ecoul = 2931.64396009143
cycle= 7 E= -4018.69687167186  delta_E= -0.296  |g|= 0.869  |ddm|= 1.13
    CPU time for cycle= 7      2.07 sec, wall time      0.12 sec
  alpha nocc = 66  HOMO = 0.232702913446401  LUMO = 0.647811693896724
  beta  nocc = 66  HOMO = 0.23263721982806  LUMO = 0.64785794232945
  alpha mo_energy =
[-2.60990204e+02 -1.04238117e+02 -1.04235291e+02 -1.04130235e+02
 -1.04129047e+02 -1.04128131e+02 -1.04127712e+02 -3.15531063e+01
 -2.70335328e+01 -2.70334690e+01 -2.70322978e+01 -9.94473351e+00
 -9.94246677e+00 -9.86539735e+00 -9.86442117e+00 -9.86360682e+00
 -9.86325194e+00 -7.41364903e+00 -7.41153108e+00 -7.41151040e+00
 -7.41133255e+00 -7.40922147e+00 -7.40920077e+00 -7.33167813e+00
 -7.33068184e+00 -7.32987318e+00 -7.32983543e+00 -7.32979922e+00
 -7.32947555e+00 -7.32888066e+00 -7.32880898e+00 -7.32804138e+00
 -7.32796727e+00 -7.32768212e+00 -7.32760775e+00 -3.70960740e+00
 -2.27889702e+00 -2.27871387e+00 -2.27770157e+00 -4.54099446e-01
 -4.33316077e-01 -4.13883853e-01 -4.11144858e-01 -4.10155484e-01
 -4.01384757e-01 -2.50911462e-02 -2.43235229e-02 -2.13988362e-02
  5.72749298e-02  1.13532869e-01  1.18276375e-01  1.18681711e-01
  1.32129861e-01  1.37095212e-01  1.51909295e-01  1.52370331e-01
  1.65359896e-01  1.81173239e-01  1.81479479e-01  1.95862138e-01
  2.00271637e-01  2.03284954e-01  2.04061227e-01  2.12503373e-01
  2.13562453e-01  2.32702913e-01  6.47811694e-01  6.79487442e-01
  6.79857356e-01  6.91987067e-01  7.23129158e-01  7.23485649e-01
  9.38875835e-01  9.83227617e-01  9.84909260e-01  9.85377424e-01
  1.00054842e+00  1.00226326e+00  1.02070324e+00  1.02227144e+00
  1.02328577e+00  1.32241131e+00  1.32922359e+00  1.32999031e+00
  1.35212573e+00  1.36635188e+00  1.36679547e+00  1.37263061e+00
  1.39874390e+00  1.40334219e+00  1.41243084e+00  1.41326552e+00
  1.41402725e+00  1.41707770e+00  1.42123089e+00  1.42171807e+00
  1.47460498e+00  1.47524728e+00  1.48209916e+00  1.56952116e+00
  1.57321955e+00  1.57453650e+00  1.58419031e+00  1.59594206e+00
  1.59678842e+00  1.60266750e+00  1.60302122e+00  1.60975348e+00
  1.61475352e+00  1.62029983e+00  1.63185670e+00  1.63269071e+00
  1.64138078e+00  1.64560670e+00  1.64688198e+00  1.68031796e+00
  1.69324692e+00  1.69400508e+00  1.73207916e+00  1.73270898e+00
  1.74206788e+00  1.78114905e+00  1.78482220e+00  1.78536995e+00
  1.86482001e+00  1.86509690e+00  1.96279275e+00  2.02148099e+00
  2.02225189e+00  2.02680997e+00  2.04127808e+00  2.04918244e+00
  2.04979184e+00  2.23661122e+00  2.24168998e+00  2.25259878e+00
  2.25825075e+00  2.25873549e+00  2.36602742e+00  2.36623074e+00
  2.36665984e+00  2.93072572e+00  2.93456229e+00  2.94560144e+00
  3.83377487e+00  3.88935552e+00  3.88948325e+00  3.88964781e+00
  4.09887261e+00  4.09922007e+00  4.09947505e+00]
  beta  mo_energy =
[-2.60990193e+02 -1.04238131e+02 -1.04235306e+02 -1.04130253e+02
 -1.04129066e+02 -1.04128149e+02 -1.04127730e+02 -3.15531164e+01
 -2.70334669e+01 -2.70333810e+01 -2.70324957e+01 -9.94475262e+00
 -9.94248589e+00 -9.86542034e+00 -9.86444415e+00 -9.86362839e+00
 -9.86327353e+00 -7.41363497e+00 -7.41157570e+00 -7.41153614e+00
 -7.41131850e+00 -7.40926610e+00 -7.40922658e+00 -7.33168265e+00
 -7.33068632e+00 -7.32990808e+00 -7.32983971e+00 -7.32983770e+00
 -7.32947786e+00 -7.32891556e+00 -7.32884946e+00 -7.32808071e+00
 -7.32800307e+00 -7.32772144e+00 -7.32764356e+00 -3.70967605e+00
 -2.27897116e+00 -2.27846379e+00 -2.27827029e+00 -4.54196067e-01
 -4.33358218e-01 -4.13980963e-01 -4.11273156e-01 -4.10258509e-01
 -4.01501680e-01 -2.53206387e-02 -2.44516278e-02 -2.15357432e-02
  5.73114531e-02  1.13584262e-01  1.18237947e-01  1.18652377e-01
  1.31985274e-01  1.36997625e-01  1.51969977e-01  1.52421523e-01
  1.65357796e-01  1.81106110e-01  1.81512034e-01  1.95703369e-01
  2.00256060e-01  2.03282687e-01  2.04048310e-01  2.12139291e-01
  2.13454530e-01  2.32637220e-01  6.47857942e-01  6.79497978e-01
  6.79872070e-01  6.91967920e-01  7.22812599e-01  7.23198167e-01
  9.38896067e-01  9.83234532e-01  9.84900517e-01  9.85396020e-01
  1.00057463e+00  1.00226324e+00  1.02072853e+00  1.02228674e+00
  1.02331787e+00  1.32239338e+00  1.32917043e+00  1.32994215e+00
  1.35207224e+00  1.36628590e+00  1.36672941e+00  1.37254688e+00
  1.39873268e+00  1.40330200e+00  1.41237405e+00  1.41323627e+00
  1.41401869e+00  1.41702241e+00  1.42121104e+00  1.42165440e+00
  1.47453002e+00  1.47518943e+00  1.48202002e+00  1.56950707e+00
  1.57319619e+00  1.57454006e+00  1.58423076e+00  1.59595352e+00
  1.59679685e+00  1.60267689e+00  1.60303273e+00  1.60973325e+00
  1.61473229e+00  1.62027534e+00  1.63180718e+00  1.63265334e+00
  1.64132482e+00  1.64555407e+00  1.64683707e+00  1.68030873e+00
  1.69320836e+00  1.69397859e+00  1.73211547e+00  1.73276542e+00
  1.74210019e+00  1.78113806e+00  1.78481390e+00  1.78533088e+00
  1.86478456e+00  1.86505693e+00  1.96278744e+00  2.02148511e+00
  2.02226116e+00  2.02680718e+00  2.04128827e+00  2.04916392e+00
  2.04981474e+00  2.23658488e+00  2.24165991e+00  2.25257587e+00
  2.25822848e+00  2.25870771e+00  2.36602854e+00  2.36617773e+00
  2.36663665e+00  2.93057677e+00  2.93445068e+00  2.94556793e+00
  3.83374907e+00  3.88898675e+00  3.88946640e+00  3.88969431e+00
  4.09861262e+00  4.09879830e+00  4.09961735e+00]
multiplicity <S^2> = 5.4004904e-05  2S+1 = 1.000108
    CPU time for df vj and vk      2.03 sec, wall time      0.10 sec
E1 = -8232.971225837844  Ecoul = 2929.8205552029467
cycle= 8 E= -4018.80620815843  delta_E= -0.109  |g|= 0.745  |ddm|= 0.525
    CPU time for cycle= 8      2.12 sec, wall time      0.12 sec
  alpha nocc = 66  HOMO = 0.245942467134545  LUMO = 0.663984057938895
  beta  nocc = 66  HOMO = 0.245883320649723  LUMO = 0.664009010855158
  alpha mo_energy =
[-2.60993704e+02 -1.04128742e+02 -1.04128014e+02 -1.04127713e+02
 -1.04127554e+02 -1.04083988e+02 -1.04081881e+02 -3.15552343e+01
 -2.70360106e+01 -2.70356571e+01 -2.70349256e+01 -9.85741616e+00
 -9.85662060e+00 -9.85661058e+00 -9.85624726e+00 -9.82729683e+00
 -9.82566453e+00 -7.32455056e+00 -7.32375632e+00 -7.32372821e+00
 -7.32337799e+00 -7.32297375e+00 -7.32276096e+00 -7.32216771e+00
 -7.32215147e+00 -7.32197567e+00 -7.32193941e+00 -7.32178954e+00
 -7.32159758e+00 -7.29337762e+00 -7.29170690e+00 -7.29156003e+00
 -7.29154780e+00 -7.28989124e+00 -7.28987885e+00 -3.70291679e+00
 -2.27140846e+00 -2.27063835e+00 -2.26994421e+00 -4.25150289e-01
 -3.95156203e-01 -3.94443344e-01 -3.87628210e-01 -3.84848369e-01
 -3.80038095e-01 -5.61455611e-02 -5.56677439e-02 -5.42808144e-02
  7.70262430e-02  1.35234887e-01  1.35614396e-01  1.38829545e-01
  1.60251358e-01  1.65762946e-01  1.72530002e-01  1.72931482e-01
  1.74420267e-01  2.04589155e-01  2.12593276e-01  2.13022218e-01
  2.17070586e-01  2.19353965e-01  2.19624028e-01  2.32637311e-01
  2.33225814e-01  2.45942467e-01  6.63984058e-01  6.92369956e-01
  6.93306339e-01  7.01246682e-01  7.87073397e-01  7.98935007e-01
  9.61494858e-01  1.00511719e+00  1.00536333e+00  1.00581842e+00
  1.01754829e+00  1.01878201e+00  1.04055816e+00  1.04107798e+00
  1.04146842e+00  1.34858169e+00  1.34901825e+00  1.35059124e+00
  1.37828226e+00  1.38916420e+00  1.38949886e+00  1.38994019e+00
  1.42250967e+00  1.42347425e+00  1.43590068e+00  1.43668053e+00
  1.43694604e+00  1.43804238e+00  1.43833038e+00  1.43904063e+00
  1.49846970e+00  1.49974550e+00  1.50020971e+00  1.59014707e+00
  1.59065693e+00  1.59098437e+00  1.60671429e+00  1.61774061e+00
  1.61996221e+00  1.63034589e+00  1.63230737e+00  1.63248585e+00
  1.64985107e+00  1.65045607e+00  1.65548981e+00  1.65580840e+00
  1.66133253e+00  1.66693701e+00  1.67227040e+00  1.71143522e+00
  1.71195029e+00  1.71625472e+00  1.75596437e+00  1.75844247e+00
  1.75887868e+00  1.80931454e+00  1.80958801e+00  1.81116073e+00
  1.89259018e+00  1.89321607e+00  1.98592810e+00  2.04631978e+00
  2.04793192e+00  2.04826914e+00  2.06729975e+00  2.06761914e+00
  2.07019087e+00  2.26125372e+00  2.26286462e+00  2.28050408e+00
  2.28083396e+00  2.28287801e+00  2.37685732e+00  2.37704511e+00
  2.37758660e+00  2.96171755e+00  2.96201082e+00  2.96443752e+00
  3.84395427e+00  3.90511977e+00  3.90564628e+00  3.90608101e+00
  4.11970866e+00  4.11981160e+00  4.11988234e+00]
  beta  mo_energy =
[-2.60993698e+02 -1.04128751e+02 -1.04128023e+02 -1.04127723e+02
 -1.04127564e+02 -1.04083987e+02 -1.04081880e+02 -3.15552330e+01
 -2.70358259e+01 -2.70356914e+01 -2.70350798e+01 -9.85742634e+00
 -9.85663125e+00 -9.85662090e+00 -9.85625800e+00 -9.82729637e+00
 -9.82566413e+00 -7.32454340e+00 -7.32374962e+00 -7.32372112e+00
 -7.32337127e+00 -7.32298306e+00 -7.32280235e+00 -7.32219307e+00
 -7.32216074e+00 -7.32200371e+00 -7.32198095e+00 -7.32181491e+00
 -7.32162553e+00 -7.29335180e+00 -7.29168123e+00 -7.29157475e+00
 -7.29154638e+00 -7.28990594e+00 -7.28987748e+00 -3.70294156e+00
 -2.27107771e+00 -2.27083368e+00 -2.27025642e+00 -4.25189395e-01
 -3.95202842e-01 -3.94495047e-01 -3.87598821e-01 -3.84902768e-01
 -3.80036308e-01 -5.62422194e-02 -5.58808509e-02 -5.42531089e-02
  7.70272438e-02  1.35209519e-01  1.35593694e-01  1.38857115e-01
  1.60185445e-01  1.65620721e-01  1.72565395e-01  1.72959876e-01
  1.74424480e-01  2.04528479e-01  2.12520307e-01  2.13013888e-01
  2.16909289e-01  2.19410121e-01  2.19804191e-01  2.32476772e-01
  2.33201549e-01  2.45883321e-01  6.64009011e-01  6.92365457e-01
  6.93313691e-01  7.01240955e-01  7.87146294e-01  7.98651778e-01
  9.61503487e-01  1.00512572e+00  1.00535731e+00  1.00581890e+00
  1.01757458e+00  1.01877551e+00  1.04055478e+00  1.04110125e+00
  1.04147285e+00  1.34856518e+00  1.34900236e+00  1.35059036e+00
  1.37829080e+00  1.38906520e+00  1.38950238e+00  1.38992467e+00
  1.42250772e+00  1.42348677e+00  1.43588069e+00  1.43665134e+00
  1.43690489e+00  1.43802594e+00  1.43833497e+00  1.43903572e+00
  1.49842221e+00  1.49973130e+00  1.50019524e+00  1.59014236e+00
  1.59066879e+00  1.59097500e+00  1.60673992e+00  1.61774456e+00
  1.62000580e+00  1.63035596e+00  1.63231142e+00  1.63249611e+00
  1.64981716e+00  1.65042105e+00  1.65548863e+00  1.65577417e+00
  1.66128713e+00  1.66693888e+00  1.67224247e+00  1.71140750e+00
  1.71191437e+00  1.71626291e+00  1.75595660e+00  1.75847387e+00
  1.75891024e+00  1.80932875e+00  1.80957578e+00  1.81117472e+00
  1.89257675e+00  1.89320789e+00  1.98593329e+00  2.04631536e+00
  2.04794320e+00  2.04828483e+00  2.06729596e+00  2.06762437e+00
  2.07020993e+00  2.26123866e+00  2.26285387e+00  2.28049417e+00
  2.28081868e+00  2.28287122e+00  2.37684834e+00  2.37697478e+00
  2.37760867e+00  2.96166756e+00  2.96194207e+00  2.96442398e+00
  3.84394077e+00  3.90515655e+00  3.90549378e+00  3.90600737e+00
  4.11940452e+00  4.11965733e+00  4.12003100e+00]
multiplicity <S^2> = 5.532359e-05  2S+1 = 1.0001106
    CPU time for df vj and vk      2.00 sec, wall time      0.10 sec
E1 = -8229.185678722175  Ecoul = 2925.979800640015
cycle= 9 E= -4018.8614156057  delta_E= -0.0552  |g|= 0.678  |ddm|= 0.414
    CPU time for cycle= 9      2.08 sec, wall time      0.16 sec
  alpha nocc = 66  HOMO = 0.241794679844787  LUMO = 0.681487770356504
  beta  nocc = 66  HOMO = 0.241884592913582  LUMO = 0.681482666946254
  alpha mo_energy =
[-2.60603478e+02 -1.04167131e+02 -1.04166906e+02 -1.04166715e+02
 -1.04166215e+02 -1.04112149e+02 -1.04111073e+02 -3.11984026e+01
 -2.66740624e+01 -2.66738334e+01 -2.66737159e+01 -9.88595830e+00
 -9.88585994e+00 -9.88563178e+00 -9.88531787e+00 -9.83938900e+00
 -9.83856598e+00 -7.35396266e+00 -7.35383764e+00 -7.35362955e+00
 -7.35328456e+00 -7.35270941e+00 -7.35260040e+00 -7.35237646e+00
 -7.35230175e+00 -7.35217635e+00 -7.35204774e+00 -7.35196882e+00
 -7.35162356e+00 -7.30676499e+00 -7.30592083e+00 -7.30519341e+00
 -7.30517645e+00 -7.30435186e+00 -7.30433508e+00 -3.49473387e+00
 -2.07429809e+00 -2.07357126e+00 -2.07216341e+00 -4.24118731e-01
 -3.98237004e-01 -3.98089487e-01 -3.87724157e-01 -3.77451321e-01
 -3.72429146e-01  3.90592111e-02  4.28054358e-02  4.29553567e-02
  9.10681166e-02  1.40228120e-01  1.40345512e-01  1.45919817e-01
  1.77900839e-01  1.80535096e-01  1.81638050e-01  1.82206421e-01
  1.90217650e-01  1.97901087e-01  2.11599737e-01  2.11812814e-01
  2.19545393e-01  2.21616091e-01  2.22285021e-01  2.26318196e-01
  2.27102699e-01  2.41794680e-01  6.81487770e-01  7.07008678e-01
  7.07586182e-01  7.09315436e-01  9.52515083e-01  9.61773367e-01
  9.91058394e-01  1.02008082e+00  1.02026275e+00  1.02333927e+00
  1.04773799e+00  1.05141910e+00  1.05226511e+00  1.05454195e+00
  1.05495889e+00  1.35274103e+00  1.35284786e+00  1.36155919e+00
  1.37981482e+00  1.38756998e+00  1.39362874e+00  1.39373907e+00
  1.42994353e+00  1.43503723e+00  1.43581313e+00  1.43837043e+00
  1.43842212e+00  1.45669776e+00  1.45673243e+00  1.46045691e+00
  1.49456643e+00  1.50275182e+00  1.50285246e+00  1.59563281e+00
  1.59602670e+00  1.60224558e+00  1.62402100e+00  1.62806382e+00
  1.63448869e+00  1.63452336e+00  1.63568456e+00  1.64560700e+00
  1.64625289e+00  1.64635619e+00  1.64991363e+00  1.65477823e+00
  1.66316423e+00  1.67113028e+00  1.67461526e+00  1.70822536e+00
  1.70835468e+00  1.72249633e+00  1.75269204e+00  1.76282628e+00
  1.76293379e+00  1.81973510e+00  1.81985704e+00  1.82281912e+00
  1.90597091e+00  1.90772797e+00  2.02065275e+00  2.04573204e+00
  2.05158589e+00  2.05172918e+00  2.09555924e+00  2.09570748e+00
  2.10431686e+00  2.27008174e+00  2.27547009e+00  2.28469701e+00
  2.28479494e+00  2.29189714e+00  2.47999149e+00  2.48260413e+00
  2.48267005e+00  2.99902864e+00  3.08563341e+00  3.08830434e+00
  3.95766831e+00  4.02409959e+00  4.02451649e+00  4.02534272e+00
  4.24225187e+00  4.24257535e+00  4.24366935e+00]
  beta  mo_energy =
[-2.60603478e+02 -1.04167129e+02 -1.04166903e+02 -1.04166713e+02
 -1.04166211e+02 -1.04112129e+02 -1.04111052e+02 -3.11984076e+01
 -2.66740657e+01 -2.66738406e+01 -2.66737178e+01 -9.88595460e+00
 -9.88585467e+00 -9.88562808e+00 -9.88531254e+00 -9.83936390e+00
 -9.83854079e+00 -7.35395512e+00 -7.35382771e+00 -7.35362196e+00
 -7.35327463e+00 -7.35271680e+00 -7.35259428e+00 -7.35238380e+00
 -7.35230318e+00 -7.35218488e+00 -7.35204161e+00 -7.35197038e+00
 -7.35163184e+00 -7.30674624e+00 -7.30590195e+00 -7.30515566e+00
 -7.30513906e+00 -7.30431415e+00 -7.30429746e+00 -3.49474355e+00
 -2.07438743e+00 -2.07356911e+00 -2.07210726e+00 -4.24082762e-01
 -3.98214582e-01 -3.98087918e-01 -3.87719399e-01 -3.77324294e-01
 -3.72321304e-01  3.90570218e-02  4.28270406e-02  4.29258795e-02
  9.10346448e-02  1.40215431e-01  1.40318066e-01  1.45944830e-01
  1.77769265e-01  1.80252093e-01  1.81734139e-01  1.82468702e-01
  1.90188797e-01  1.97954912e-01  2.11459479e-01  2.11767767e-01
  2.19287537e-01  2.21777486e-01  2.22658194e-01  2.26294429e-01
  2.27265708e-01  2.41884593e-01  6.81482667e-01  7.07012540e-01
  7.07586865e-01  7.09312338e-01  9.52498419e-01  9.61722639e-01
  9.91054957e-01  1.02005588e+00  1.02028744e+00  1.02334989e+00
  1.04757508e+00  1.05140191e+00  1.05218351e+00  1.05471001e+00
  1.05502180e+00  1.35276140e+00  1.35286787e+00  1.36158484e+00
  1.37986598e+00  1.38753918e+00  1.39370005e+00  1.39378827e+00
  1.42998165e+00  1.43503898e+00  1.43583451e+00  1.43836601e+00
  1.43845824e+00  1.45669080e+00  1.45677594e+00  1.46048964e+00
  1.49456085e+00  1.50282056e+00  1.50291984e+00  1.59563373e+00
  1.59605318e+00  1.60226264e+00  1.62402059e+00  1.62809786e+00
  1.63448951e+00  1.63453180e+00  1.63568306e+00  1.64556375e+00
  1.64626620e+00  1.64637016e+00  1.64990048e+00  1.65475916e+00
  1.66322646e+00  1.67115540e+00  1.67469565e+00  1.70820635e+00
  1.70832860e+00  1.72256253e+00  1.75263205e+00  1.76285025e+00
  1.76293725e+00  1.81977017e+00  1.81985498e+00  1.82284337e+00
  1.90595369e+00  1.90776259e+00  2.02066130e+00  2.04572216e+00
  2.05160516e+00  2.05175132e+00  2.09551477e+00  2.09575085e+00
  2.10432776e+00  2.27008631e+00  2.27547678e+00  2.28470632e+00
  2.28479539e+00  2.29192341e+00  2.47999551e+00  2.48261524e+00
  2.48267481e+00  2.99903228e+00  3.08562706e+00  3.08827560e+00
  3.95767563e+00  4.02400549e+00  4.02448208e+00  4.02547062e+00
  4.24217536e+00  4.24260957e+00  4.24366379e+00]
multiplicity <S^2> = 6.4822874e-05  2S+1 = 1.0001296
    CPU time for df vj and vk      2.02 sec, wall time      0.10 sec
E1 = -8220.422507754953  Ecoul = 2917.0897466130173
cycle= 10 E= -4018.98829866547  delta_E= -0.127  |g|= 0.226  |ddm|= 0.93
    CPU time for cycle= 10      2.10 sec, wall time      0.12 sec
  alpha nocc = 66  HOMO = 0.256964320656505  LUMO = 0.683457940473671
  beta  nocc = 66  HOMO = 0.256930977103487  LUMO = 0.683449806318909
  alpha mo_energy =
[-2.60699606e+02 -1.04145747e+02 -1.04145524e+02 -1.04115197e+02
 -1.04115075e+02 -1.04115004e+02 -1.04114972e+02 -3.12534936e+01
 -2.67350119e+01 -2.67346814e+01 -2.67345643e+01 -9.86590788e+00
 -9.86568210e+00 -9.84462104e+00 -9.84454593e+00 -9.84446376e+00
 -9.84444940e+00 -7.33339589e+00 -7.33317149e+00 -7.33216065e+00
 -7.33215654e+00 -7.33193655e+00 -7.33193236e+00 -7.31130813e+00
 -7.31123251e+00 -7.31114925e+00 -7.31113702e+00 -7.31013513e+00
 -7.31006739e+00 -7.31005666e+00 -7.30999278e+00 -7.30997356e+00
 -7.30996436e+00 -7.30990961e+00 -7.30989617e+00 -3.46116841e+00
 -2.04220726e+00 -2.04164088e+00 -2.04151368e+00 -4.08934486e-01
 -3.82847256e-01 -3.77746772e-01 -3.77729209e-01 -3.70958546e-01
 -3.67431672e-01  8.99323852e-02  9.02023587e-02  9.03397828e-02
  1.08138089e-01  1.56024120e-01  1.57756122e-01  1.57796848e-01
  1.97381861e-01  2.01797456e-01  2.05775959e-01  2.05889295e-01
  2.07897815e-01  2.20793518e-01  2.20825888e-01  2.22899900e-01
  2.31311992e-01  2.32250194e-01  2.32275022e-01  2.49653038e-01
  2.49796872e-01  2.56964321e-01  6.83457940e-01  7.09615967e-01
  7.09777840e-01  7.09953805e-01  9.21936369e-01  9.23759532e-01
  1.01911539e+00  1.03904117e+00  1.03937087e+00  1.03940029e+00
  1.04111509e+00  1.04112116e+00  1.07058594e+00  1.07070147e+00
  1.07092527e+00  1.36678015e+00  1.36812650e+00  1.36813833e+00
  1.39280368e+00  1.39888028e+00  1.39890443e+00  1.40071896e+00
  1.43833907e+00  1.43907782e+00  1.44624866e+00  1.44627864e+00
  1.44666928e+00  1.47353792e+00  1.47509087e+00  1.47512350e+00
  1.50794659e+00  1.50796726e+00  1.50985030e+00  1.60622397e+00
  1.60749608e+00  1.60759878e+00  1.63523012e+00  1.64360560e+00
  1.64361419e+00  1.64470058e+00  1.64528084e+00  1.64590214e+00
  1.65993966e+00  1.66396685e+00  1.66397364e+00  1.66424013e+00
  1.67112020e+00  1.67362865e+00  1.68068208e+00  1.72015209e+00
  1.72336208e+00  1.72338731e+00  1.76844144e+00  1.76845678e+00
  1.77073931e+00  1.83690496e+00  1.83733690e+00  1.83736448e+00
  1.91633858e+00  1.91667014e+00  2.04376187e+00  2.05973307e+00
  2.05976463e+00  2.06076649e+00  2.11847202e+00  2.12004376e+00
  2.12006892e+00  2.27958709e+00  2.28073118e+00  2.29907466e+00
  2.30051478e+00  2.30053400e+00  2.52549912e+00  2.52609869e+00
  2.52619585e+00  3.01758350e+00  3.09376810e+00  3.09380043e+00
  4.00720675e+00  4.07053943e+00  4.07086640e+00  4.07100288e+00
  4.28404772e+00  4.28435470e+00  4.28443258e+00]
  beta  mo_energy =
[-2.60699605e+02 -1.04145734e+02 -1.04145512e+02 -1.04115194e+02
 -1.04115072e+02 -1.04115001e+02 -1.04114970e+02 -3.12534984e+01
 -2.67350644e+01 -2.67347122e+01 -2.67344949e+01 -9.86589285e+00
 -9.86566709e+00 -9.84461753e+00 -9.84454288e+00 -9.84446068e+00
 -9.84444595e+00 -7.33339132e+00 -7.33316701e+00 -7.33213722e+00
 -7.33213043e+00 -7.33191310e+00 -7.33190635e+00 -7.31130521e+00
 -7.31123079e+00 -7.31114750e+00 -7.31113417e+00 -7.31013454e+00
 -7.31005900e+00 -7.31005700e+00 -7.30998690e+00 -7.30997391e+00
 -7.30996375e+00 -7.30990374e+00 -7.30988785e+00 -3.46117188e+00
 -2.04232623e+00 -2.04156190e+00 -2.04148133e+00 -4.08898827e-01
 -3.82783150e-01 -3.77736983e-01 -3.77718921e-01 -3.70914538e-01
 -3.67425056e-01  9.00523458e-02  9.01345816e-02  9.03280417e-02
  1.08128191e-01  1.56024071e-01  1.57779469e-01  1.57790252e-01
  1.97344703e-01  2.01761866e-01  2.05903988e-01  2.05940784e-01
  2.07866831e-01  2.20805155e-01  2.20877196e-01  2.22942489e-01
  2.31305501e-01  2.32259889e-01  2.32264994e-01  2.49696652e-01
  2.49904145e-01  2.56930977e-01  6.83449806e-01  7.09616426e-01
  7.09776591e-01  7.09948932e-01  9.21943209e-01  9.23670719e-01
  1.01912859e+00  1.03905883e+00  1.03934183e+00  1.03943048e+00
  1.04108256e+00  1.04110804e+00  1.07061605e+00  1.07070130e+00
  1.07091943e+00  1.36679328e+00  1.36813857e+00  1.36815359e+00
  1.39281982e+00  1.39890961e+00  1.39894833e+00  1.40071939e+00
  1.43833717e+00  1.43909369e+00  1.44625492e+00  1.44629783e+00
  1.44670674e+00  1.47355450e+00  1.47511328e+00  1.47513036e+00
  1.50797500e+00  1.50800696e+00  1.50985915e+00  1.60623278e+00
  1.60749220e+00  1.60761417e+00  1.63522394e+00  1.64360563e+00
  1.64361739e+00  1.64468317e+00  1.64529527e+00  1.64590571e+00
  1.65997473e+00  1.66397337e+00  1.66397662e+00  1.66427231e+00
  1.67113557e+00  1.67363119e+00  1.68069833e+00  1.72018472e+00
  1.72336293e+00  1.72338495e+00  1.76844516e+00  1.76846211e+00
  1.77071301e+00  1.83691138e+00  1.83734975e+00  1.83736090e+00
  1.91635896e+00  1.91666043e+00  2.04376704e+00  2.05974012e+00
  2.05977575e+00  2.06076147e+00  2.11847570e+00  2.12000248e+00
  2.12011421e+00  2.27959208e+00  2.28073449e+00  2.29909369e+00
  2.30052522e+00  2.30053358e+00  2.52551575e+00  2.52615758e+00
  2.52617196e+00  3.01758933e+00  3.09376132e+00  3.09377457e+00
  4.00721807e+00  4.07052275e+00  4.07073656e+00  4.07118392e+00
  4.28408092e+00  4.28429291e+00  4.28446150e+00]
multiplicity <S^2> = 6.9673322e-05  2S+1 = 1.0001393
    CPU time for df vj and vk      2.05 sec, wall time      0.11 sec
E1 = -8216.279028191782  Ecoul = 2912.9252777282327
cycle= 11 E= -4019.00928798709  delta_E= -0.021  |g|= 0.0422  |ddm|= 0.368
    CPU time for cycle= 11      2.13 sec, wall time      0.13 sec
  alpha nocc = 66  HOMO = 0.254350391839221  LUMO = 0.682756336723918
  beta  nocc = 66  HOMO = 0.254341960947264  LUMO = 0.682751632478463
  alpha mo_energy =
[-2.60668484e+02 -1.04127084e+02 -1.04127051e+02 -1.04127017e+02
 -1.04127011e+02 -1.04124217e+02 -1.04124185e+02 -3.12298996e+01
 -2.67102004e+01 -2.67100868e+01 -2.67100505e+01 -9.85302519e+00
 -9.85298717e+00 -9.85296848e+00 -9.85295308e+00 -9.85161235e+00
 -9.85156690e+00 -7.31993220e+00 -7.31989670e+00 -7.31987401e+00
 -7.31986580e+00 -7.31869984e+00 -7.31868669e+00 -7.31866478e+00
 -7.31865164e+00 -7.31863869e+00 -7.31863187e+00 -7.31863050e+00
 -7.31862372e+00 -7.31843874e+00 -7.31839609e+00 -7.31718933e+00
 -7.31718663e+00 -7.31714717e+00 -7.31714447e+00 -3.45268152e+00
 -2.03399339e+00 -2.03368556e+00 -2.03327013e+00 -4.10190179e-01
 -3.80747220e-01 -3.80734575e-01 -3.80706207e-01 -3.70636829e-01
 -3.70620884e-01  9.58471056e-02  9.59881499e-02  9.60659315e-02
  1.07329470e-01  1.56155616e-01  1.56161050e-01  1.56189658e-01
  1.95130909e-01  1.95380230e-01  2.09766067e-01  2.09831783e-01
  2.09886722e-01  2.21541412e-01  2.21695858e-01  2.21702893e-01
  2.30619920e-01  2.30644758e-01  2.30663771e-01  2.53717877e-01
  2.53782654e-01  2.54350392e-01  6.82756337e-01  7.09171815e-01
  7.09319995e-01  7.09338486e-01  9.21213461e-01  9.21420805e-01
  1.01806224e+00  1.03770704e+00  1.03772142e+00  1.03774670e+00
  1.04017762e+00  1.04031401e+00  1.07003308e+00  1.07004088e+00
  1.07009074e+00  1.36664362e+00  1.36674483e+00  1.36675973e+00
  1.39105738e+00  1.39837222e+00  1.39837436e+00  1.39866224e+00
  1.43795117e+00  1.43801940e+00  1.44521104e+00  1.44537317e+00
  1.44537639e+00  1.47388343e+00  1.47396301e+00  1.47399159e+00
  1.50731907e+00  1.50732197e+00  1.50747256e+00  1.60657631e+00
  1.60673865e+00  1.60676944e+00  1.63570945e+00  1.64291360e+00
  1.64291482e+00  1.64292020e+00  1.64499141e+00  1.64504913e+00
  1.66156874e+00  1.66158821e+00  1.66159861e+00  1.66408018e+00
  1.67077031e+00  1.67079487e+00  1.67958423e+00  1.72122470e+00
  1.72125301e+00  1.72126478e+00  1.76833423e+00  1.76834543e+00
  1.76848443e+00  1.83580214e+00  1.83581555e+00  1.83592215e+00
  1.91524910e+00  1.91534228e+00  2.04365010e+00  2.05882233e+00
  2.05883432e+00  2.05887295e+00  2.11920671e+00  2.11923047e+00
  2.11926208e+00  2.27920018e+00  2.27923240e+00  2.29844969e+00
  2.29846031e+00  2.29846810e+00  2.53013857e+00  2.53025479e+00
  2.53031870e+00  3.01751100e+00  3.09741972e+00  3.09744852e+00
  4.01031541e+00  4.07317342e+00  4.07352287e+00  4.07372562e+00
  4.28649420e+00  4.28683606e+00  4.28690179e+00]
  beta  mo_energy =
[-2.60668484e+02 -1.04127082e+02 -1.04127049e+02 -1.04127017e+02
 -1.04127010e+02 -1.04124212e+02 -1.04124180e+02 -3.12298978e+01
 -2.67102789e+01 -2.67100477e+01 -2.67100062e+01 -9.85302388e+00
 -9.85298587e+00 -9.85296753e+00 -9.85295216e+00 -9.85160561e+00
 -9.85156015e+00 -7.31993093e+00 -7.31989540e+00 -7.31987344e+00
 -7.31986523e+00 -7.31869632e+00 -7.31868634e+00 -7.31866123e+00
 -7.31865126e+00 -7.31863727e+00 -7.31863077e+00 -7.31862911e+00
 -7.31862261e+00 -7.31843518e+00 -7.31839249e+00 -7.31717768e+00
 -7.31717613e+00 -7.31713551e+00 -7.31713395e+00 -3.45267201e+00
 -2.03405350e+00 -2.03356800e+00 -2.03329171e+00 -4.10177027e-01
 -3.80744538e-01 -3.80732977e-01 -3.80679454e-01 -3.70634668e-01
 -3.70602662e-01  9.59028165e-02  9.59912704e-02  9.60209788e-02
  1.07335157e-01  1.56164966e-01  1.56169049e-01  1.56187239e-01
  1.95128015e-01  1.95341880e-01  2.09808715e-01  2.09872461e-01
  2.09894815e-01  2.21535344e-01  2.21700224e-01  2.21723421e-01
  2.30587614e-01  2.30647433e-01  2.30701261e-01  2.53712700e-01
  2.53798603e-01  2.54341961e-01  6.82751632e-01  7.09167505e-01
  7.09319095e-01  7.09339137e-01  9.21275311e-01  9.21427422e-01
  1.01806865e+00  1.03771244e+00  1.03772552e+00  1.03774736e+00
  1.04017679e+00  1.04030466e+00  1.07003204e+00  1.07006433e+00
  1.07009381e+00  1.36665057e+00  1.36675442e+00  1.36676236e+00
  1.39106418e+00  1.39838298e+00  1.39839017e+00  1.39866481e+00
  1.43795603e+00  1.43802378e+00  1.44521295e+00  1.44537985e+00
  1.44539192e+00  1.47388990e+00  1.47397093e+00  1.47399437e+00
  1.50732999e+00  1.50733251e+00  1.50747800e+00  1.60657869e+00
  1.60674959e+00  1.60676274e+00  1.63570645e+00  1.64291363e+00
  1.64291742e+00  1.64292277e+00  1.64498808e+00  1.64504689e+00
  1.66158274e+00  1.66158879e+00  1.66159992e+00  1.66408609e+00
  1.67078062e+00  1.67079528e+00  1.67958969e+00  1.72123545e+00
  1.72125426e+00  1.72126459e+00  1.76833871e+00  1.76834585e+00
  1.76847560e+00  1.83579316e+00  1.83582839e+00  1.83592497e+00
  1.91525606e+00  1.91534117e+00  2.04365373e+00  2.05882673e+00
  2.05883443e+00  2.05887421e+00  2.11920783e+00  2.11923738e+00
  2.11926058e+00  2.27920060e+00  2.27923541e+00  2.29845081e+00
  2.29846054e+00  2.29847888e+00  2.53014873e+00  2.53028828e+00
  2.53031962e+00  3.01751425e+00  3.09741967e+00  3.09745132e+00
  4.01032593e+00  4.07324388e+00  4.07346925e+00  4.07375199e+00
  4.28654822e+00  4.28679408e+00  4.28691144e+00]
multiplicity <S^2> = 7.5693067e-05  2S+1 = 1.0001514
    CPU time for df vj and vk      1.98 sec, wall time      0.10 sec
E1 = -8215.69679342521  Ecoul = 2912.3423741239103
cycle= 12 E= -4019.00995682484  delta_E= -0.000669  |g|= 0.00356  |ddm|= 0.0594
    CPU time for cycle= 12      2.06 sec, wall time      0.12 sec
  alpha nocc = 66  HOMO = 0.253841023820475  LUMO = 0.682701991373783
  beta  nocc = 66  HOMO = 0.253839174521282  LUMO = 0.682700080407773
  alpha mo_energy =
[-2.60669140e+02 -1.04128105e+02 -1.04128101e+02 -1.04128095e+02
 -1.04128082e+02 -1.04128000e+02 -1.04127998e+02 -3.12307701e+01
 -2.67110406e+01 -2.67109532e+01 -2.67108788e+01 -9.85401384e+00
 -9.85399785e+00 -9.85399433e+00 -9.85398277e+00 -9.85389238e+00
 -9.85387858e+00 -7.32092500e+00 -7.32092155e+00 -7.32091765e+00
 -7.32090739e+00 -7.32080985e+00 -7.32080727e+00 -7.31967497e+00
 -7.31967194e+00 -7.31967142e+00 -7.31966922e+00 -7.31966811e+00
 -7.31966394e+00 -7.31965854e+00 -7.31965354e+00 -7.31956165e+00
 -7.31956097e+00 -7.31955916e+00 -7.31955846e+00 -3.45331590e+00
 -2.03451587e+00 -2.03422516e+00 -2.03380021e+00 -4.10516520e-01
 -3.81129766e-01 -3.81123502e-01 -3.81088706e-01 -3.71059960e-01
 -3.71029739e-01  9.60333096e-02  9.61785476e-02  9.62340726e-02
  1.07092081e-01  1.55843861e-01  1.55845733e-01  1.55859461e-01
  1.94871523e-01  1.94926796e-01  2.09789595e-01  2.09842590e-01
  2.09876683e-01  2.21380942e-01  2.21442937e-01  2.21447600e-01
  2.30354246e-01  2.30373241e-01  2.30379306e-01  2.53749185e-01
  2.53751056e-01  2.53841024e-01  6.82701991e-01  7.09234906e-01
  7.09256682e-01  7.09268933e-01  9.20286249e-01  9.20377657e-01
  1.01798257e+00  1.03764343e+00  1.03765477e+00  1.03766638e+00
  1.03992359e+00  1.03993785e+00  1.07001775e+00  1.07004703e+00
  1.07005903e+00  1.36647803e+00  1.36648918e+00  1.36649818e+00
  1.39083364e+00  1.39822203e+00  1.39822533e+00  1.39827883e+00
  1.43763138e+00  1.43763617e+00  1.44506185e+00  1.44509835e+00
  1.44510226e+00  1.47362055e+00  1.47362898e+00  1.47363800e+00
  1.50707938e+00  1.50708347e+00  1.50710215e+00  1.60628660e+00
  1.60630115e+00  1.60633119e+00  1.63526865e+00  1.64247946e+00
  1.64249240e+00  1.64249693e+00  1.64449990e+00  1.64451738e+00
  1.66116091e+00  1.66116325e+00  1.66118474e+00  1.66365771e+00
  1.67035129e+00  1.67037156e+00  1.67917168e+00  1.72083765e+00
  1.72084335e+00  1.72085305e+00  1.76798923e+00  1.76799334e+00
  1.76799581e+00  1.83556363e+00  1.83558849e+00  1.83560152e+00
  1.91495709e+00  1.91496254e+00  2.04335766e+00  2.05851242e+00
  2.05852198e+00  2.05852510e+00  2.11897855e+00  2.11900152e+00
  2.11901746e+00  2.27889377e+00  2.27890376e+00  2.29820554e+00
  2.29821741e+00  2.29822024e+00  2.53008231e+00  2.53017906e+00
  2.53021577e+00  3.01733531e+00  3.09701886e+00  3.09704619e+00
  4.01024501e+00  4.07304184e+00  4.07335854e+00  4.07356963e+00
  4.28627301e+00  4.28653189e+00  4.28668190e+00]
  beta  mo_energy =
[-2.60669139e+02 -1.04128105e+02 -1.04128100e+02 -1.04128094e+02
 -1.04128082e+02 -1.04127997e+02 -1.04127995e+02 -3.12307700e+01
 -2.67111110e+01 -2.67109185e+01 -2.67108431e+01 -9.85401345e+00
 -9.85399726e+00 -9.85399401e+00 -9.85398213e+00 -9.85388928e+00
[...]
        1    0.000    0.000    0.000    0.000 <__array_function__ internals>:2(eigvalsh)
       11    0.000    0.000    0.000    0.000 {method 'cumsum' of 'numpy.ndarray' objects}
        1    0.000    0.000    0.000    0.000 /home/xzhang8/.conda/envs/py37/lib/python3.7/site-packages/numpy/linalg/linalg.py:1085(eigvalsh)
       16    0.000    0.000    0.000    0.000 /home/xzhang8/.conda/envs/py37/lib/python3.7/site-packages/numpy/linalg/linalg.py:107(_makearray)
        1    0.000    0.000    0.000    0.000 /home/xzhang8/pyscf/pyscf/lib/misc.py:70(current_memory)
       48    0.000    0.000    0.000    0.000 {method 'encode' of 'str' objects}
        1    0.000    0.000    0.000    0.000 /home/xzhang8/.conda/envs/py37/lib/python3.7/site-packages/numpy/polynomial/legendre.py:607(legder)
        1    0.000    0.000    0.000    0.000 /home/xzhang8/pyscf/pyscf/lib/logger.py:167(timer)
        1    0.000    0.000    0.000    0.000 <__array_function__ internals>:2(vstack)
       11    0.000    0.000    0.000    0.000 /home/xzhang8/pyscf/pyscf/gto/moleintor.py:248(_get_intor_and_comp)
       13    0.000    0.000    0.000    0.000 /home/xzhang8/.conda/envs/py37/lib/python3.7/site-packages/numpy/core/shape_base.py:82(atleast_2d)
       10    0.000    0.000    0.000    0.000 /home/xzhang8/pyscf/pyscf/lib/numpy_helper.py:1098(__array_wrap__)
      201    0.000    0.000    0.000    0.000 {built-in method builtins.max}
       67    0.000    0.000    0.000    0.000 {built-in method builtins.min}
       11    0.000    0.000    0.000    0.000 /home/xzhang8/pyscf/pyscf/gto/mole.py:3287(_add_suffix)
       47    0.000    0.000    0.000    0.000 {built-in method builtins.sorted}
        1    0.000    0.000    0.000    0.000 /home/xzhang8/.conda/envs/py37/lib/python3.7/ctypes/__init__.py:374(__getattr__)
        2    0.000    0.000    0.000    0.000 <__array_function__ internals>:2(diff)
       15    0.000    0.000    0.000    0.000 /home/xzhang8/.conda/envs/py37/lib/python3.7/site-packages/numpy/core/einsumfunc.py:886(<listcomp>)
        2    0.000    0.000    0.000    0.000 <__array_function__ internals>:2(any)
       39    0.000    0.000    0.000    0.000 {method 'astype' of 'numpy.ndarray' objects}
        1    0.000    0.000    0.000    0.000 <__array_function__ internals>:2(norm)
        1    0.000    0.000    0.000    0.000 /home/xzhang8/.conda/envs/py37/lib/python3.7/site-packages/numpy/core/shape_base.py:223(vstack)
        1    0.000    0.000    0.000    0.000 /home/xzhang8/.conda/envs/py37/lib/python3.7/site-packages/numpy/polynomial/polyutils.py:126(as_series)
       16    0.000    0.000    0.000    0.000 /home/xzhang8/.conda/envs/py37/lib/python3.7/site-packages/numpy/linalg/linalg.py:102(get_linalg_error_extobj)
      135    0.000    0.000    0.000    0.000 /home/xzhang8/.conda/envs/py37/lib/python3.7/site-packages/numpy/core/einsumfunc.py:257(<genexpr>)
       37    0.000    0.000    0.000    0.000 /home/xzhang8/.conda/envs/py37/lib/python3.7/site-packages/numpy/linalg/linalg.py:125(_realType)
        2    0.000    0.000    0.000    0.000 /home/xzhang8/.conda/envs/py37/lib/python3.7/site-packages/numpy/lib/function_base.py:1152(diff)
        2    0.000    0.000    0.000    0.000 /home/xzhang8/.conda/envs/py37/lib/python3.7/site-packages/numpy/core/fromnumeric.py:2249(any)
        1    0.000    0.000    0.000    0.000 /home/xzhang8/pyscf/pyscf/lib/logger.py:114(flush)
       10    0.000    0.000    0.000    0.000 {method 'astype' of 'numpy.generic' objects}
        1    0.000    0.000    0.000    0.000 /home/xzhang8/.conda/envs/py37/lib/python3.7/ctypes/__init__.py:381(__getitem__)
      176    0.000    0.000    0.000    0.000 /home/xzhang8/.conda/envs/py37/lib/python3.7/site-packages/numpy/core/fromnumeric.py:3117(size)
        1    0.000    0.000    0.000    0.000 /home/xzhang8/.conda/envs/py37/lib/python3.7/site-packages/numpy/linalg/linalg.py:2363(norm)
        2    0.000    0.000    0.000    0.000 /home/xzhang8/pyscf/pyscf/df/df.py:220(get_naoaux)
       20    0.000    0.000    0.000    0.000 /home/xzhang8/pyscf/pyscf/lib/numpy_helper.py:183(<listcomp>)
        1    0.000    0.000    0.000    0.000 {built-in method io.open}
       15    0.000    0.000    0.000    0.000 /home/xzhang8/.conda/envs/py37/lib/python3.7/site-packages/numpy/core/einsumfunc.py:851(<listcomp>)
       81    0.000    0.000    0.000    0.000 {method 'conj' of 'numpy.ndarray' objects}
       55    0.000    0.000    0.000    0.000 {method 'intersection' of 'set' objects}
        2    0.000    0.000    0.000    0.000 <__array_function__ internals>:2(moveaxis)
       80    0.000    0.000    0.000    0.000 {method 'items' of 'dict' objects}
       11    0.000    0.000    0.000    0.000 /home/xzhang8/pyscf/pyscf/gto/moleintor.py:817(__del__)
      169    0.000    0.000    0.000    0.000 /home/xzhang8/.conda/envs/py37/lib/python3.7/site-packages/numpy/core/multiarray.py:706(dot)
       40    0.000    0.000    0.000    0.000 {method 'pop' of 'dict' objects}
       52    0.000    0.000    0.000    0.000 /home/xzhang8/.conda/envs/py37/lib/python3.7/site-packages/numpy/linalg/linalg.py:112(isComplexType)
        2    0.000    0.000    0.000    0.000 /home/xzhang8/.conda/envs/py37/lib/python3.7/site-packages/numpy/core/numeric.py:1371(moveaxis)
        1    0.000    0.000    0.000    0.000 {method 'flush' of '_io.TextIOWrapper' objects}
        4    0.000    0.000    0.000    0.000 /home/xzhang8/pyscf/pyscf/ao2mo/_ao2mo.py:24(_fpointer)
        3    0.000    0.000    0.000    0.000 /home/xzhang8/pyscf/pyscf/ao2mo/addons.py:38(__enter__)
        1    0.000    0.000    0.000    0.000 <__array_function__ internals>:2(common_type)
        2    0.000    0.000    0.000    0.000 <__array_function__ internals>:2(alltrue)
       57    0.000    0.000    0.000    0.000 {method 'get' of 'dict' objects}
       20    0.000    0.000    0.000    0.000 /home/xzhang8/pyscf/pyscf/lib/numpy_helper.py:204(<listcomp>)
        2    0.000    0.000    0.000    0.000 /home/xzhang8/.conda/envs/py37/lib/python3.7/site-packages/numpy/core/fromnumeric.py:3678(alltrue)
        2    0.000    0.000    0.000    0.000 /home/xzhang8/pyscf/pyscf/df/df.py:186(loop)
       56    0.000    0.000    0.000    0.000 /home/xzhang8/.conda/envs/py37/lib/python3.7/site-packages/numpy/core/fromnumeric.py:2100(_sum_dispatcher)
        2    0.000    0.000    0.000    0.000 {built-in method builtins.print}
        1    0.000    0.000    0.000    0.000 /home/xzhang8/.conda/envs/py37/lib/python3.7/site-packages/numpy/lib/type_check.py:679(common_type)
      120    0.000    0.000    0.000    0.000 {method 'index' of 'str' objects}
        2    0.000    0.000    0.000    0.000 <__array_function__ internals>:2(all)
       44    0.000    0.000    0.000    0.000 {method 'endswith' of 'str' objects}
       26    0.000    0.000    0.000    0.000 /home/xzhang8/.conda/envs/py37/lib/python3.7/site-packages/numpy/linalg/linalg.py:194(_assert_stacked_2d)
        1    0.000    0.000    0.000    0.000 <__array_function__ internals>:2(concatenate)
       53    0.000    0.000    0.000    0.000 {method 'insert' of 'list' objects}
       11    0.000    0.000    0.000    0.000 /home/xzhang8/pyscf/pyscf/gto/moleintor.py:837(ascint3)
        1    0.000    0.000    0.000    0.000 <__array_function__ internals>:2(argsort)
        2    0.000    0.000    0.000    0.000 /home/xzhang8/.conda/envs/py37/lib/python3.7/site-packages/numpy/core/fromnumeric.py:2337(all)
       84    0.000    0.000    0.000    0.000 /home/xzhang8/.conda/envs/py37/lib/python3.7/site-packages/numpy/core/numerictypes.py:554(<listcomp>)
       55    0.000    0.000    0.000    0.000 /home/xzhang8/.conda/envs/py37/lib/python3.7/site-packages/numpy/core/multiarray.py:634(result_type)
        1    0.000    0.000    0.000    0.000 {method 'readline' of '_io.TextIOWrapper' objects}
       90    0.000    0.000    0.000    0.000 {method 'copy' of 'set' objects}
        1    0.000    0.000    0.000    0.000 /home/xzhang8/.conda/envs/py37/lib/python3.7/site-packages/numpy/core/shape_base.py:219(_vhstack_dispatcher)
       10    0.000    0.000    0.000    0.000 {method 'view' of 'numpy.ndarray' objects}
      120    0.000    0.000    0.000    0.000 {method 'index' of 'list' objects}
       30    0.000    0.000    0.000    0.000 /home/xzhang8/.conda/envs/py37/lib/python3.7/site-packages/numpy/core/einsumfunc.py:273(_update_other_results)
       45    0.000    0.000    0.000    0.000 /home/xzhang8/.conda/envs/py37/lib/python3.7/site-packages/numpy/core/einsumfunc.py:404(<genexpr>)
        2    0.000    0.000    0.000    0.000 {method 'max' of 'numpy.ndarray' objects}
       20    0.000    0.000    0.000    0.000 /home/xzhang8/pyscf/pyscf/lib/numpy_helper.py:184(<listcomp>)
       60    0.000    0.000    0.000    0.000 /home/xzhang8/.conda/envs/py37/lib/python3.7/site-packages/numpy/core/einsumfunc.py:897(<genexpr>)
       81    0.000    0.000    0.000    0.000 {built-in method builtins.issubclass}
        4    0.000    0.000    0.000    0.000 {built-in method _ctypes.dlsym}
       15    0.000    0.000    0.000    0.000 /home/xzhang8/.conda/envs/py37/lib/python3.7/site-packages/numpy/core/einsumfunc.py:883(<listcomp>)
        1    0.000    0.000    0.000    0.000 /home/xzhang8/.conda/envs/py37/lib/python3.7/site-packages/numpy/core/shape_base.py:208(_arrays_for_stack_dispatcher)
       25    0.000    0.000    0.000    0.000 {method '__array_prepare__' of 'numpy.ndarray' objects}
        5    0.000    0.000    0.000    0.000 /home/xzhang8/spump2/spump2/dfsppt2.py:483(get_M_matrix)
        1    0.000    0.000    0.000    0.000 /home/xzhang8/.conda/envs/py37/lib/python3.7/site-packages/numpy/core/fromnumeric.py:999(argsort)
        2    0.000    0.000    0.000    0.000 /home/xzhang8/.conda/envs/py37/lib/python3.7/site-packages/numpy/core/_methods.py:37(_amax)
      272    0.000    0.000    0.000    0.000 /home/xzhang8/.conda/envs/py37/lib/python3.7/site-packages/numpy/core/fromnumeric.py:3071(_ndim_dispatcher)
       18    0.000    0.000    0.000    0.000 {built-in method numpy.core._multiarray_umath.normalize_axis_index}
      120    0.000    0.000    0.000    0.000 {method 'keys' of 'dict' objects}
       16    0.000    0.000    0.000    0.000 /home/xzhang8/.conda/envs/py37/lib/python3.7/site-packages/numpy/linalg/linalg.py:200(_assert_stacked_square)
        4    0.000    0.000    0.000    0.000 /home/xzhang8/.conda/envs/py37/lib/python3.7/site-packages/numpy/core/numeric.py:1308(normalize_axis_tuple)
        1    0.000    0.000    0.000    0.000 /home/xzhang8/.conda/envs/py37/lib/python3.7/site-packages/numpy/core/fromnumeric.py:52(_wrapfunc)
       20    0.000    0.000    0.000    0.000 /home/xzhang8/.conda/envs/py37/lib/python3.7/site-packages/numpy/core/fromnumeric.py:2876(_prod_dispatcher)
       60    0.000    0.000    0.000    0.000 {method 'isdisjoint' of 'set' objects}
        2    0.000    0.000    0.000    0.000 {built-in method time.process_time}
        5    0.000    0.000    0.000    0.000 /home/xzhang8/.conda/envs/py37/lib/python3.7/abc.py:137(__instancecheck__)
       24    0.000    0.000    0.000    0.000 {method 'startswith' of 'str' objects}
        2    0.000    0.000    0.000    0.000 /home/xzhang8/.conda/envs/py37/lib/python3.7/site-packages/numpy/lib/index_tricks.py:879(diag_indices)
       22    0.000    0.000    0.000    0.000 {built-in method _ctypes.byref}
       15    0.000    0.000    0.000    0.000 /home/xzhang8/.conda/envs/py37/lib/python3.7/site-packages/numpy/core/einsumfunc.py:696(_einsum_path_dispatcher)
       15    0.000    0.000    0.000    0.000 /home/xzhang8/.conda/envs/py37/lib/python3.7/site-packages/numpy/core/einsumfunc.py:857(<listcomp>)
        6    0.000    0.000    0.000    0.000 /home/xzhang8/.conda/envs/py37/lib/python3.7/site-packages/numpy/core/numerictypes.py:621(<listcomp>)
        3    0.000    0.000    0.000    0.000 /home/xzhang8/pyscf/pyscf/df/addons.py:76(__init__)
       15    0.000    0.000    0.000    0.000 /home/xzhang8/.conda/envs/py37/lib/python3.7/site-packages/numpy/core/einsumfunc.py:947(<listcomp>)
       45    0.000    0.000    0.000    0.000 {method 'join' of 'str' objects}
       11    0.000    0.000    0.000    0.000 {method 'remove' of 'list' objects}
        3    0.000    0.000    0.000    0.000 /home/xzhang8/.conda/envs/py37/lib/python3.7/site-packages/numpy/polynomial/polyutils.py:762(_deprecate_as_int)
        1    0.000    0.000    0.000    0.000 <__array_function__ internals>:2(iscomplexobj)
        1    0.000    0.000    0.000    0.000 {method 'argsort' of 'numpy.ndarray' objects}
       15    0.000    0.000    0.000    0.000 /home/xzhang8/.conda/envs/py37/lib/python3.7/site-packages/numpy/core/einsumfunc.py:946(<listcomp>)
       11    0.000    0.000    0.000    0.000 /home/xzhang8/.conda/envs/py37/lib/python3.7/site-packages/numpy/core/numeric.py:1214(_rollaxis_dispatcher)
        5    0.000    0.000    0.000    0.000 {built-in method _abc._abc_instancecheck}
        1    0.000    0.000    0.000    0.000 /home/xzhang8/.conda/envs/py37/lib/python3.7/site-packages/numpy/polynomial/polyutils.py:96(trimseq)
        1    0.000    0.000    0.000    0.000 /home/xzhang8/.conda/envs/py37/lib/python3.7/site-packages/numpy/polynomial/polyutils.py:182(<listcomp>)
       15    0.000    0.000    0.000    0.000 /home/xzhang8/.conda/envs/py37/lib/python3.7/site-packages/numpy/linalg/linalg.py:473(_unary_dispatcher)
       10    0.000    0.000    0.000    0.000 /home/xzhang8/.conda/envs/py37/lib/python3.7/site-packages/numpy/linalg/linalg.py:1479(_svd_dispatcher)
       13    0.000    0.000    0.000    0.000 /home/xzhang8/.conda/envs/py37/lib/python3.7/site-packages/numpy/core/shape_base.py:78(_atleast_2d_dispatcher)
        1    0.000    0.000    0.000    0.000 /home/xzhang8/.conda/envs/py37/lib/python3.7/codecs.py:319(decode)
        1    0.000    0.000    0.000    0.000 {built-in method builtins.hasattr}
        1    0.000    0.000    0.000    0.000 /home/xzhang8/.conda/envs/py37/lib/python3.7/site-packages/numpy/lib/type_check.py:279(iscomplexobj)
       45    0.000    0.000    0.000    0.000 /home/xzhang8/.conda/envs/py37/lib/python3.7/site-packages/numpy/core/einsumfunc.py:395(<lambda>)
        1    0.000    0.000    0.000    0.000 /home/xzhang8/.conda/envs/py37/lib/python3.7/codecs.py:309(__init__)
        3    0.000    0.000    0.000    0.000 /home/xzhang8/pyscf/pyscf/ao2mo/addons.py:33(__init__)
        6    0.000    0.000    0.000    0.000 /home/xzhang8/.conda/envs/py37/lib/python3.7/site-packages/scipy/linalg/special_matrices.py:539(<listcomp>)
        1    0.000    0.000    0.000    0.000 /home/xzhang8/.conda/envs/py37/lib/python3.7/site-packages/numpy/polynomial/polyutils.py:198(<listcomp>)
        1    0.000    0.000    0.000    0.000 /home/xzhang8/spump2/spump2/dfsppt2.py:1248(__init__)
        2    0.000    0.000    0.000    0.000 /home/xzhang8/pyscf/pyscf/df/df.py:216(prange)
        1    0.000    0.000    0.000    0.000 /home/xzhang8/pyscf/pyscf/lib/misc.py:76(<listcomp>)
        1    0.000    0.000    0.000    0.000 {method 'copy' of 'numpy.ndarray' objects}
        2    0.000    0.000    0.000    0.000 {method 'write' of '_io.TextIOWrapper' objects}
        6    0.000    0.000    0.000    0.000 /home/xzhang8/.conda/envs/py37/lib/python3.7/site-packages/scipy/linalg/special_matrices.py:544(<listcomp>)
        6    0.000    0.000    0.000    0.000 /home/xzhang8/.conda/envs/py37/lib/python3.7/site-packages/scipy/linalg/special_matrices.py:545(<listcomp>)
        2    0.000    0.000    0.000    0.000 {built-in method _ctypes.POINTER}
        4    0.000    0.000    0.000    0.000 /home/xzhang8/.conda/envs/py37/lib/python3.7/site-packages/numpy/core/numeric.py:1358(<listcomp>)
       10    0.000    0.000    0.000    0.000 {function NPArrayWithTag.__array_wrap__ at 0x7f7de8d74dd0}
        1    0.000    0.000    0.000    0.000 {method 'sort' of 'numpy.ndarray' objects}
        7    0.000    0.000    0.000    0.000 {built-in method _operator.index}
        1    0.000    0.000    0.000    0.000 /home/xzhang8/spump2/spump2/dfsppt2.py:1257(_common_init_)
        3    0.000    0.000    0.000    0.000 /home/xzhang8/pyscf/pyscf/ao2mo/addons.py:55(__exit__)
        1    0.000    0.000    0.000    0.000 /home/xzhang8/.conda/envs/py37/lib/python3.7/site-packages/numpy/polynomial/polyutils.py:176(<listcomp>)
        1    0.000    0.000    0.000    0.000 /home/xzhang8/.conda/envs/py37/lib/python3.7/site-packages/numpy/polynomial/polyutils.py:184(<listcomp>)
        5    0.000    0.000    0.000    0.000 /home/xzhang8/.conda/envs/py37/lib/python3.7/site-packages/numpy/lib/twodim_base.py:210(_diag_dispatcher)
        4    0.000    0.000    0.000    0.000 /home/xzhang8/.conda/envs/py37/lib/python3.7/site-packages/numpy/core/fromnumeric.py:2333(_all_dispatcher)
        6    0.000    0.000    0.000    0.000 /home/xzhang8/.conda/envs/py37/lib/python3.7/site-packages/numpy/core/numerictypes.py:622(<listcomp>)
        1    0.000    0.000    0.000    0.000 /home/xzhang8/.conda/envs/py37/lib/python3.7/codecs.py:260(__init__)
        1    0.000    0.000    0.000    0.000 /home/xzhang8/.conda/envs/py37/lib/python3.7/codecs.py:331(getstate)
        2    0.000    0.000    0.000    0.000 {built-in method time.perf_counter}
        1    0.000    0.000    0.000    0.000 {built-in method _codecs.utf_8_decode}
        5    0.000    0.000    0.000    0.000 {built-in method builtins.abs}
        2    0.000    0.000    0.000    0.000 {method 'upper' of 'str' objects}
        1    0.000    0.000    0.000    0.000 /home/xzhang8/.conda/envs/py37/lib/python3.7/site-packages/numpy/polynomial/polyutils.py:177(<listcomp>)
        1    0.000    0.000    0.000    0.000 /home/xzhang8/.conda/envs/py37/lib/python3.7/site-packages/numpy/polynomial/polyutils.py:179(<listcomp>)
        2    0.000    0.000    0.000    0.000 /home/xzhang8/.conda/envs/py37/lib/python3.7/site-packages/numpy/lib/index_tricks.py:948(_diag_indices_from)
        1    0.000    0.000    0.000    0.000 /home/xzhang8/.conda/envs/py37/lib/python3.7/site-packages/numpy/linalg/linalg.py:2359(_norm_dispatcher)
        2    0.000    0.000    0.000    0.000 /home/xzhang8/.conda/envs/py37/lib/python3.7/site-packages/numpy/core/numeric.py:1367(_moveaxis_dispatcher)
        2    0.000    0.000    0.000    0.000 /home/xzhang8/.conda/envs/py37/lib/python3.7/site-packages/numpy/core/numeric.py:1434(<listcomp>)
        2    0.000    0.000    0.000    0.000 /home/xzhang8/.conda/envs/py37/lib/python3.7/site-packages/numpy/core/fromnumeric.py:2245(_any_dispatcher)
        1    0.000    0.000    0.000    0.000 /home/xzhang8/.conda/envs/py37/lib/python3.7/site-packages/numpy/core/multiarray.py:143(concatenate)
        1    0.000    0.000    0.000    0.000 /home/xzhang8/.conda/envs/py37/lib/python3.7/_bootlocale.py:33(getpreferredencoding)
        1    0.000    0.000    0.000    0.000 {built-in method posix.getpid}
        1    0.000    0.000    0.000    0.000 {method 'disable' of '_lsprof.Profiler' objects}
        2    0.000    0.000    0.000    0.000 /home/xzhang8/.conda/envs/py37/lib/python3.7/site-packages/numpy/lib/function_base.py:1148(_diff_dispatcher)
        1    0.000    0.000    0.000    0.000 /home/xzhang8/.conda/envs/py37/lib/python3.7/site-packages/numpy/linalg/linalg.py:1081(_eigvalsh_dispatcher)
        1    0.000    0.000    0.000    0.000 /home/xzhang8/.conda/envs/py37/lib/python3.7/site-packages/numpy/lib/type_check.py:206(_is_type_dispatcher)
        1    0.000    0.000    0.000    0.000 /home/xzhang8/.conda/envs/py37/lib/python3.7/site-packages/numpy/lib/type_check.py:675(_common_type_dispatcher)
        1    0.000    0.000    0.000    0.000 /home/xzhang8/.conda/envs/py37/lib/python3.7/site-packages/numpy/core/fromnumeric.py:995(_argsort_dispatcher)
        1    0.000    0.000    0.000    0.000 {built-in method builtins.setattr}


